V -t * -v 1.0a5 -a 0
A -t * -n 1 -p 0 -o 0x7fffffff -c 30 -a 1
A -t * -h 1 -m 1073741823 -s 0
c -t * -i 1 -n Blue
c -t * -i 2 -n Red
c -t * -i 3 -n Green
n -t * -a 4 -s 4 -S UP -v circle -c black -i black
n -t * -a 0 -s 0 -S UP -v circle -c black -i black
n -t * -a 5 -s 5 -S UP -v circle -c black -i black
n -t * -a 1 -s 1 -S UP -v circle -c black -i black
n -t * -a 2 -s 2 -S UP -v circle -c black -i black
n -t * -a 3 -s 3 -S UP -v circle -c black -i black
l -t * -s 0 -d 2 -S UP -r 1000000 -D 0.01 -c black
l -t * -s 1 -d 2 -S UP -r 1000000 -D 0.01 -c black
l -t * -s 2 -d 3 -S UP -r 1000000 -D 0.01 -c black
l -t * -s 3 -d 5 -S UP -r 1000000 -D 0.01 -c black
l -t * -s 3 -d 4 -S UP -r 1000000 -D 0.01 -c black
+ -t 1 -s 0 -d 2 -p tcp -e 40 -c 1 -i 0 -a 1 -x {0.0 5.0 0 ------- null}
- -t 1 -s 0 -d 2 -p tcp -e 40 -c 1 -i 0 -a 1 -x {0.0 5.0 0 ------- null}
h -t 1 -s 0 -d 2 -p tcp -e 40 -c 1 -i 0 -a 1 -x {0.0 5.0 -1 ------- null}
+ -t 1 -s 1 -d 2 -p tcp -e 40 -c 2 -i 1 -a 2 -x {1.0 5.1 0 ------- null}
- -t 1 -s 1 -d 2 -p tcp -e 40 -c 2 -i 1 -a 2 -x {1.0 5.1 0 ------- null}
h -t 1 -s 1 -d 2 -p tcp -e 40 -c 2 -i 1 -a 2 -x {1.0 5.1 -1 ------- null}
r -t 1.01032 -s 0 -d 2 -p tcp -e 40 -c 1 -i 0 -a 1 -x {0.0 5.0 0 ------- null}
+ -t 1.01032 -s 2 -d 3 -p tcp -e 40 -c 1 -i 0 -a 1 -x {0.0 5.0 0 ------- null}
- -t 1.01032 -s 2 -d 3 -p tcp -e 40 -c 1 -i 0 -a 1 -x {0.0 5.0 0 ------- null}
h -t 1.01032 -s 2 -d 3 -p tcp -e 40 -c 1 -i 0 -a 1 -x {0.0 5.0 -1 ------- null}
r -t 1.01032 -s 1 -d 2 -p tcp -e 40 -c 2 -i 1 -a 2 -x {1.0 5.1 0 ------- null}
+ -t 1.01032 -s 2 -d 3 -p tcp -e 40 -c 2 -i 1 -a 2 -x {1.0 5.1 0 ------- null}
- -t 1.01064 -s 2 -d 3 -p tcp -e 40 -c 2 -i 1 -a 2 -x {1.0 5.1 0 ------- null}
h -t 1.01064 -s 2 -d 3 -p tcp -e 40 -c 2 -i 1 -a 2 -x {1.0 5.1 -1 ------- null}
r -t 1.02064 -s 2 -d 3 -p tcp -e 40 -c 1 -i 0 -a 1 -x {0.0 5.0 0 ------- null}
+ -t 1.02064 -s 3 -d 5 -p tcp -e 40 -c 1 -i 0 -a 1 -x {0.0 5.0 0 ------- null}
- -t 1.02064 -s 3 -d 5 -p tcp -e 40 -c 1 -i 0 -a 1 -x {0.0 5.0 0 ------- null}
h -t 1.02064 -s 3 -d 5 -p tcp -e 40 -c 1 -i 0 -a 1 -x {0.0 5.0 -1 ------- null}
r -t 1.02096 -s 2 -d 3 -p tcp -e 40 -c 2 -i 1 -a 2 -x {1.0 5.1 0 ------- null}
+ -t 1.02096 -s 3 -d 5 -p tcp -e 40 -c 2 -i 1 -a 2 -x {1.0 5.1 0 ------- null}
- -t 1.02096 -s 3 -d 5 -p tcp -e 40 -c 2 -i 1 -a 2 -x {1.0 5.1 0 ------- null}
h -t 1.02096 -s 3 -d 5 -p tcp -e 40 -c 2 -i 1 -a 2 -x {1.0 5.1 -1 ------- null}
r -t 1.03096 -s 3 -d 5 -p tcp -e 40 -c 1 -i 0 -a 1 -x {0.0 5.0 0 ------- null}
+ -t 1.03096 -s 5 -d 3 -p ack -e 40 -c 1 -i 2 -a 1 -x {5.0 0.0 0 ------- null}
- -t 1.03096 -s 5 -d 3 -p ack -e 40 -c 1 -i 2 -a 1 -x {5.0 0.0 0 ------- null}
h -t 1.03096 -s 5 -d 3 -p ack -e 40 -c 1 -i 2 -a 1 -x {5.0 0.0 -1 ------- null}
r -t 1.03128 -s 3 -d 5 -p tcp -e 40 -c 2 -i 1 -a 2 -x {1.0 5.1 0 ------- null}
+ -t 1.03128 -s 5 -d 3 -p ack -e 40 -c 2 -i 3 -a 2 -x {5.1 1.0 0 ------- null}
- -t 1.03128 -s 5 -d 3 -p ack -e 40 -c 2 -i 3 -a 2 -x {5.1 1.0 0 ------- null}
h -t 1.03128 -s 5 -d 3 -p ack -e 40 -c 2 -i 3 -a 2 -x {5.1 1.0 -1 ------- null}
r -t 1.04128 -s 5 -d 3 -p ack -e 40 -c 1 -i 2 -a 1 -x {5.0 0.0 0 ------- null}
+ -t 1.04128 -s 3 -d 2 -p ack -e 40 -c 1 -i 2 -a 1 -x {5.0 0.0 0 ------- null}
- -t 1.04128 -s 3 -d 2 -p ack -e 40 -c 1 -i 2 -a 1 -x {5.0 0.0 0 ------- null}
h -t 1.04128 -s 3 -d 2 -p ack -e 40 -c 1 -i 2 -a 1 -x {5.0 0.0 -1 ------- null}
r -t 1.0416 -s 5 -d 3 -p ack -e 40 -c 2 -i 3 -a 2 -x {5.1 1.0 0 ------- null}
+ -t 1.0416 -s 3 -d 2 -p ack -e 40 -c 2 -i 3 -a 2 -x {5.1 1.0 0 ------- null}
- -t 1.0416 -s 3 -d 2 -p ack -e 40 -c 2 -i 3 -a 2 -x {5.1 1.0 0 ------- null}
h -t 1.0416 -s 3 -d 2 -p ack -e 40 -c 2 -i 3 -a 2 -x {5.1 1.0 -1 ------- null}
r -t 1.0516 -s 3 -d 2 -p ack -e 40 -c 1 -i 2 -a 1 -x {5.0 0.0 0 ------- null}
+ -t 1.0516 -s 2 -d 0 -p ack -e 40 -c 1 -i 2 -a 1 -x {5.0 0.0 0 ------- null}
- -t 1.0516 -s 2 -d 0 -p ack -e 40 -c 1 -i 2 -a 1 -x {5.0 0.0 0 ------- null}
h -t 1.0516 -s 2 -d 0 -p ack -e 40 -c 1 -i 2 -a 1 -x {5.0 0.0 -1 ------- null}
r -t 1.05192 -s 3 -d 2 -p ack -e 40 -c 2 -i 3 -a 2 -x {5.1 1.0 0 ------- null}
+ -t 1.05192 -s 2 -d 1 -p ack -e 40 -c 2 -i 3 -a 2 -x {5.1 1.0 0 ------- null}
- -t 1.05192 -s 2 -d 1 -p ack -e 40 -c 2 -i 3 -a 2 -x {5.1 1.0 0 ------- null}
h -t 1.05192 -s 2 -d 1 -p ack -e 40 -c 2 -i 3 -a 2 -x {5.1 1.0 -1 ------- null}
r -t 1.06192 -s 2 -d 0 -p ack -e 40 -c 1 -i 2 -a 1 -x {5.0 0.0 0 ------- null}
+ -t 1.06192 -s 0 -d 2 -p tcp -e 1040 -c 1 -i 4 -a 1 -x {0.0 5.0 1 ------- null}
- -t 1.06192 -s 0 -d 2 -p tcp -e 1040 -c 1 -i 4 -a 1 -x {0.0 5.0 1 ------- null}
h -t 1.06192 -s 0 -d 2 -p tcp -e 1040 -c 1 -i 4 -a 1 -x {0.0 5.0 -1 ------- null}
+ -t 1.06192 -s 0 -d 2 -p tcp -e 1040 -c 1 -i 5 -a 1 -x {0.0 5.0 2 ------- null}
r -t 1.06224 -s 2 -d 1 -p ack -e 40 -c 2 -i 3 -a 2 -x {5.1 1.0 0 ------- null}
+ -t 1.06224 -s 1 -d 2 -p tcp -e 1040 -c 2 -i 6 -a 2 -x {1.0 5.1 1 ------- null}
- -t 1.06224 -s 1 -d 2 -p tcp -e 1040 -c 2 -i 6 -a 2 -x {1.0 5.1 1 ------- null}
h -t 1.06224 -s 1 -d 2 -p tcp -e 1040 -c 2 -i 6 -a 2 -x {1.0 5.1 -1 ------- null}
+ -t 1.06224 -s 1 -d 2 -p tcp -e 1040 -c 2 -i 7 -a 2 -x {1.0 5.1 2 ------- null}
- -t 1.07024 -s 0 -d 2 -p tcp -e 1040 -c 1 -i 5 -a 1 -x {0.0 5.0 2 ------- null}
h -t 1.07024 -s 0 -d 2 -p tcp -e 1040 -c 1 -i 5 -a 1 -x {0.0 5.0 -1 ------- null}
- -t 1.07056 -s 1 -d 2 -p tcp -e 1040 -c 2 -i 7 -a 2 -x {1.0 5.1 2 ------- null}
h -t 1.07056 -s 1 -d 2 -p tcp -e 1040 -c 2 -i 7 -a 2 -x {1.0 5.1 -1 ------- null}
r -t 1.08024 -s 0 -d 2 -p tcp -e 1040 -c 1 -i 4 -a 1 -x {0.0 5.0 1 ------- null}
+ -t 1.08024 -s 2 -d 3 -p tcp -e 1040 -c 1 -i 4 -a 1 -x {0.0 5.0 1 ------- null}
- -t 1.08024 -s 2 -d 3 -p tcp -e 1040 -c 1 -i 4 -a 1 -x {0.0 5.0 1 ------- null}
h -t 1.08024 -s 2 -d 3 -p tcp -e 1040 -c 1 -i 4 -a 1 -x {0.0 5.0 -1 ------- null}
r -t 1.08056 -s 1 -d 2 -p tcp -e 1040 -c 2 -i 6 -a 2 -x {1.0 5.1 1 ------- null}
+ -t 1.08056 -s 2 -d 3 -p tcp -e 1040 -c 2 -i 6 -a 2 -x {1.0 5.1 1 ------- null}
r -t 1.08856 -s 0 -d 2 -p tcp -e 1040 -c 1 -i 5 -a 1 -x {0.0 5.0 2 ------- null}
+ -t 1.08856 -s 2 -d 3 -p tcp -e 1040 -c 1 -i 5 -a 1 -x {0.0 5.0 2 ------- null}
- -t 1.08856 -s 2 -d 3 -p tcp -e 1040 -c 2 -i 6 -a 2 -x {1.0 5.1 1 ------- null}
h -t 1.08856 -s 2 -d 3 -p tcp -e 1040 -c 2 -i 6 -a 2 -x {1.0 5.1 -1 ------- null}
r -t 1.08888 -s 1 -d 2 -p tcp -e 1040 -c 2 -i 7 -a 2 -x {1.0 5.1 2 ------- null}
+ -t 1.08888 -s 2 -d 3 -p tcp -e 1040 -c 2 -i 7 -a 2 -x {1.0 5.1 2 ------- null}
- -t 1.09688 -s 2 -d 3 -p tcp -e 1040 -c 1 -i 5 -a 1 -x {0.0 5.0 2 ------- null}
h -t 1.09688 -s 2 -d 3 -p tcp -e 1040 -c 1 -i 5 -a 1 -x {0.0 5.0 -1 ------- null}
r -t 1.09856 -s 2 -d 3 -p tcp -e 1040 -c 1 -i 4 -a 1 -x {0.0 5.0 1 ------- null}
+ -t 1.09856 -s 3 -d 5 -p tcp -e 1040 -c 1 -i 4 -a 1 -x {0.0 5.0 1 ------- null}
- -t 1.09856 -s 3 -d 5 -p tcp -e 1040 -c 1 -i 4 -a 1 -x {0.0 5.0 1 ------- null}
h -t 1.09856 -s 3 -d 5 -p tcp -e 1040 -c 1 -i 4 -a 1 -x {0.0 5.0 -1 ------- null}
- -t 1.1052 -s 2 -d 3 -p tcp -e 1040 -c 2 -i 7 -a 2 -x {1.0 5.1 2 ------- null}
h -t 1.1052 -s 2 -d 3 -p tcp -e 1040 -c 2 -i 7 -a 2 -x {1.0 5.1 -1 ------- null}
r -t 1.10688 -s 2 -d 3 -p tcp -e 1040 -c 2 -i 6 -a 2 -x {1.0 5.1 1 ------- null}
+ -t 1.10688 -s 3 -d 5 -p tcp -e 1040 -c 2 -i 6 -a 2 -x {1.0 5.1 1 ------- null}
- -t 1.10688 -s 3 -d 5 -p tcp -e 1040 -c 2 -i 6 -a 2 -x {1.0 5.1 1 ------- null}
h -t 1.10688 -s 3 -d 5 -p tcp -e 1040 -c 2 -i 6 -a 2 -x {1.0 5.1 -1 ------- null}
r -t 1.1152 -s 2 -d 3 -p tcp -e 1040 -c 1 -i 5 -a 1 -x {0.0 5.0 2 ------- null}
+ -t 1.1152 -s 3 -d 5 -p tcp -e 1040 -c 1 -i 5 -a 1 -x {0.0 5.0 2 ------- null}
- -t 1.1152 -s 3 -d 5 -p tcp -e 1040 -c 1 -i 5 -a 1 -x {0.0 5.0 2 ------- null}
h -t 1.1152 -s 3 -d 5 -p tcp -e 1040 -c 1 -i 5 -a 1 -x {0.0 5.0 -1 ------- null}
r -t 1.11688 -s 3 -d 5 -p tcp -e 1040 -c 1 -i 4 -a 1 -x {0.0 5.0 1 ------- null}
+ -t 1.11688 -s 5 -d 3 -p ack -e 40 -c 1 -i 8 -a 1 -x {5.0 0.0 1 ------- null}
- -t 1.11688 -s 5 -d 3 -p ack -e 40 -c 1 -i 8 -a 1 -x {5.0 0.0 1 ------- null}
h -t 1.11688 -s 5 -d 3 -p ack -e 40 -c 1 -i 8 -a 1 -x {5.0 0.0 -1 ------- null}
r -t 1.12352 -s 2 -d 3 -p tcp -e 1040 -c 2 -i 7 -a 2 -x {1.0 5.1 2 ------- null}
+ -t 1.12352 -s 3 -d 5 -p tcp -e 1040 -c 2 -i 7 -a 2 -x {1.0 5.1 2 ------- null}
- -t 1.12352 -s 3 -d 5 -p tcp -e 1040 -c 2 -i 7 -a 2 -x {1.0 5.1 2 ------- null}
h -t 1.12352 -s 3 -d 5 -p tcp -e 1040 -c 2 -i 7 -a 2 -x {1.0 5.1 -1 ------- null}
r -t 1.1252 -s 3 -d 5 -p tcp -e 1040 -c 2 -i 6 -a 2 -x {1.0 5.1 1 ------- null}
+ -t 1.1252 -s 5 -d 3 -p ack -e 40 -c 2 -i 9 -a 2 -x {5.1 1.0 1 ------- null}
- -t 1.1252 -s 5 -d 3 -p ack -e 40 -c 2 -i 9 -a 2 -x {5.1 1.0 1 ------- null}
h -t 1.1252 -s 5 -d 3 -p ack -e 40 -c 2 -i 9 -a 2 -x {5.1 1.0 -1 ------- null}
r -t 1.1272 -s 5 -d 3 -p ack -e 40 -c 1 -i 8 -a 1 -x {5.0 0.0 1 ------- null}
+ -t 1.1272 -s 3 -d 2 -p ack -e 40 -c 1 -i 8 -a 1 -x {5.0 0.0 1 ------- null}
- -t 1.1272 -s 3 -d 2 -p ack -e 40 -c 1 -i 8 -a 1 -x {5.0 0.0 1 ------- null}
h -t 1.1272 -s 3 -d 2 -p ack -e 40 -c 1 -i 8 -a 1 -x {5.0 0.0 -1 ------- null}
r -t 1.13352 -s 3 -d 5 -p tcp -e 1040 -c 1 -i 5 -a 1 -x {0.0 5.0 2 ------- null}
+ -t 1.13352 -s 5 -d 3 -p ack -e 40 -c 1 -i 10 -a 1 -x {5.0 0.0 2 ------- null}
- -t 1.13352 -s 5 -d 3 -p ack -e 40 -c 1 -i 10 -a 1 -x {5.0 0.0 2 ------- null}
h -t 1.13352 -s 5 -d 3 -p ack -e 40 -c 1 -i 10 -a 1 -x {5.0 0.0 -1 ------- null}
r -t 1.13552 -s 5 -d 3 -p ack -e 40 -c 2 -i 9 -a 2 -x {5.1 1.0 1 ------- null}
+ -t 1.13552 -s 3 -d 2 -p ack -e 40 -c 2 -i 9 -a 2 -x {5.1 1.0 1 ------- null}
- -t 1.13552 -s 3 -d 2 -p ack -e 40 -c 2 -i 9 -a 2 -x {5.1 1.0 1 ------- null}
h -t 1.13552 -s 3 -d 2 -p ack -e 40 -c 2 -i 9 -a 2 -x {5.1 1.0 -1 ------- null}
r -t 1.13752 -s 3 -d 2 -p ack -e 40 -c 1 -i 8 -a 1 -x {5.0 0.0 1 ------- null}
+ -t 1.13752 -s 2 -d 0 -p ack -e 40 -c 1 -i 8 -a 1 -x {5.0 0.0 1 ------- null}
- -t 1.13752 -s 2 -d 0 -p ack -e 40 -c 1 -i 8 -a 1 -x {5.0 0.0 1 ------- null}
h -t 1.13752 -s 2 -d 0 -p ack -e 40 -c 1 -i 8 -a 1 -x {5.0 0.0 -1 ------- null}
r -t 1.14184 -s 3 -d 5 -p tcp -e 1040 -c 2 -i 7 -a 2 -x {1.0 5.1 2 ------- null}
+ -t 1.14184 -s 5 -d 3 -p ack -e 40 -c 2 -i 11 -a 2 -x {5.1 1.0 2 ------- null}
- -t 1.14184 -s 5 -d 3 -p ack -e 40 -c 2 -i 11 -a 2 -x {5.1 1.0 2 ------- null}
h -t 1.14184 -s 5 -d 3 -p ack -e 40 -c 2 -i 11 -a 2 -x {5.1 1.0 -1 ------- null}
r -t 1.14384 -s 5 -d 3 -p ack -e 40 -c 1 -i 10 -a 1 -x {5.0 0.0 2 ------- null}
+ -t 1.14384 -s 3 -d 2 -p ack -e 40 -c 1 -i 10 -a 1 -x {5.0 0.0 2 ------- null}
- -t 1.14384 -s 3 -d 2 -p ack -e 40 -c 1 -i 10 -a 1 -x {5.0 0.0 2 ------- null}
h -t 1.14384 -s 3 -d 2 -p ack -e 40 -c 1 -i 10 -a 1 -x {5.0 0.0 -1 ------- null}
r -t 1.14584 -s 3 -d 2 -p ack -e 40 -c 2 -i 9 -a 2 -x {5.1 1.0 1 ------- null}
+ -t 1.14584 -s 2 -d 1 -p ack -e 40 -c 2 -i 9 -a 2 -x {5.1 1.0 1 ------- null}
- -t 1.14584 -s 2 -d 1 -p ack -e 40 -c 2 -i 9 -a 2 -x {5.1 1.0 1 ------- null}
h -t 1.14584 -s 2 -d 1 -p ack -e 40 -c 2 -i 9 -a 2 -x {5.1 1.0 -1 ------- null}
r -t 1.14784 -s 2 -d 0 -p ack -e 40 -c 1 -i 8 -a 1 -x {5.0 0.0 1 ------- null}
+ -t 1.14784 -s 0 -d 2 -p tcp -e 1040 -c 1 -i 12 -a 1 -x {0.0 5.0 3 ------- null}
- -t 1.14784 -s 0 -d 2 -p tcp -e 1040 -c 1 -i 12 -a 1 -x {0.0 5.0 3 ------- null}
h -t 1.14784 -s 0 -d 2 -p tcp -e 1040 -c 1 -i 12 -a 1 -x {0.0 5.0 -1 ------- null}
+ -t 1.14784 -s 0 -d 2 -p tcp -e 1040 -c 1 -i 13 -a 1 -x {0.0 5.0 4 ------- null}
r -t 1.15216 -s 5 -d 3 -p ack -e 40 -c 2 -i 11 -a 2 -x {5.1 1.0 2 ------- null}
+ -t 1.15216 -s 3 -d 2 -p ack -e 40 -c 2 -i 11 -a 2 -x {5.1 1.0 2 ------- null}
- -t 1.15216 -s 3 -d 2 -p ack -e 40 -c 2 -i 11 -a 2 -x {5.1 1.0 2 ------- null}
h -t 1.15216 -s 3 -d 2 -p ack -e 40 -c 2 -i 11 -a 2 -x {5.1 1.0 -1 ------- null}
r -t 1.15416 -s 3 -d 2 -p ack -e 40 -c 1 -i 10 -a 1 -x {5.0 0.0 2 ------- null}
+ -t 1.15416 -s 2 -d 0 -p ack -e 40 -c 1 -i 10 -a 1 -x {5.0 0.0 2 ------- null}
- -t 1.15416 -s 2 -d 0 -p ack -e 40 -c 1 -i 10 -a 1 -x {5.0 0.0 2 ------- null}
h -t 1.15416 -s 2 -d 0 -p ack -e 40 -c 1 -i 10 -a 1 -x {5.0 0.0 -1 ------- null}
r -t 1.15616 -s 2 -d 1 -p ack -e 40 -c 2 -i 9 -a 2 -x {5.1 1.0 1 ------- null}
+ -t 1.15616 -s 1 -d 2 -p tcp -e 1040 -c 2 -i 14 -a 2 -x {1.0 5.1 3 ------- null}
- -t 1.15616 -s 1 -d 2 -p tcp -e 1040 -c 2 -i 14 -a 2 -x {1.0 5.1 3 ------- null}
h -t 1.15616 -s 1 -d 2 -p tcp -e 1040 -c 2 -i 14 -a 2 -x {1.0 5.1 -1 ------- null}
+ -t 1.15616 -s 1 -d 2 -p tcp -e 1040 -c 2 -i 15 -a 2 -x {1.0 5.1 4 ------- null}
- -t 1.15616 -s 0 -d 2 -p tcp -e 1040 -c 1 -i 13 -a 1 -x {0.0 5.0 4 ------- null}
h -t 1.15616 -s 0 -d 2 -p tcp -e 1040 -c 1 -i 13 -a 1 -x {0.0 5.0 -1 ------- null}
r -t 1.16248 -s 3 -d 2 -p ack -e 40 -c 2 -i 11 -a 2 -x {5.1 1.0 2 ------- null}
+ -t 1.16248 -s 2 -d 1 -p ack -e 40 -c 2 -i 11 -a 2 -x {5.1 1.0 2 ------- null}
- -t 1.16248 -s 2 -d 1 -p ack -e 40 -c 2 -i 11 -a 2 -x {5.1 1.0 2 ------- null}
h -t 1.16248 -s 2 -d 1 -p ack -e 40 -c 2 -i 11 -a 2 -x {5.1 1.0 -1 ------- null}
r -t 1.16448 -s 2 -d 0 -p ack -e 40 -c 1 -i 10 -a 1 -x {5.0 0.0 2 ------- null}
+ -t 1.16448 -s 0 -d 2 -p tcp -e 1040 -c 1 -i 16 -a 1 -x {0.0 5.0 5 ------- null}
+ -t 1.16448 -s 0 -d 2 -p tcp -e 1040 -c 1 -i 17 -a 1 -x {0.0 5.0 6 ------- null}
- -t 1.16448 -s 1 -d 2 -p tcp -e 1040 -c 2 -i 15 -a 2 -x {1.0 5.1 4 ------- null}
h -t 1.16448 -s 1 -d 2 -p tcp -e 1040 -c 2 -i 15 -a 2 -x {1.0 5.1 -1 ------- null}
- -t 1.16448 -s 0 -d 2 -p tcp -e 1040 -c 1 -i 16 -a 1 -x {0.0 5.0 5 ------- null}
h -t 1.16448 -s 0 -d 2 -p tcp -e 1040 -c 1 -i 16 -a 1 -x {0.0 5.0 -1 ------- null}
r -t 1.16616 -s 0 -d 2 -p tcp -e 1040 -c 1 -i 12 -a 1 -x {0.0 5.0 3 ------- null}
+ -t 1.16616 -s 2 -d 3 -p tcp -e 1040 -c 1 -i 12 -a 1 -x {0.0 5.0 3 ------- null}
- -t 1.16616 -s 2 -d 3 -p tcp -e 1040 -c 1 -i 12 -a 1 -x {0.0 5.0 3 ------- null}
h -t 1.16616 -s 2 -d 3 -p tcp -e 1040 -c 1 -i 12 -a 1 -x {0.0 5.0 -1 ------- null}
r -t 1.1728 -s 2 -d 1 -p ack -e 40 -c 2 -i 11 -a 2 -x {5.1 1.0 2 ------- null}
+ -t 1.1728 -s 1 -d 2 -p tcp -e 1040 -c 2 -i 18 -a 2 -x {1.0 5.1 5 ------- null}
+ -t 1.1728 -s 1 -d 2 -p tcp -e 1040 -c 2 -i 19 -a 2 -x {1.0 5.1 6 ------- null}
- -t 1.1728 -s 1 -d 2 -p tcp -e 1040 -c 2 -i 18 -a 2 -x {1.0 5.1 5 ------- null}
h -t 1.1728 -s 1 -d 2 -p tcp -e 1040 -c 2 -i 18 -a 2 -x {1.0 5.1 -1 ------- null}
- -t 1.1728 -s 0 -d 2 -p tcp -e 1040 -c 1 -i 17 -a 1 -x {0.0 5.0 6 ------- null}
h -t 1.1728 -s 0 -d 2 -p tcp -e 1040 -c 1 -i 17 -a 1 -x {0.0 5.0 -1 ------- null}
r -t 1.17448 -s 1 -d 2 -p tcp -e 1040 -c 2 -i 14 -a 2 -x {1.0 5.1 3 ------- null}
+ -t 1.17448 -s 2 -d 3 -p tcp -e 1040 -c 2 -i 14 -a 2 -x {1.0 5.1 3 ------- null}
r -t 1.17448 -s 0 -d 2 -p tcp -e 1040 -c 1 -i 13 -a 1 -x {0.0 5.0 4 ------- null}
+ -t 1.17448 -s 2 -d 3 -p tcp -e 1040 -c 1 -i 13 -a 1 -x {0.0 5.0 4 ------- null}
- -t 1.17448 -s 2 -d 3 -p tcp -e 1040 -c 2 -i 14 -a 2 -x {1.0 5.1 3 ------- null}
h -t 1.17448 -s 2 -d 3 -p tcp -e 1040 -c 2 -i 14 -a 2 -x {1.0 5.1 -1 ------- null}
- -t 1.18112 -s 1 -d 2 -p tcp -e 1040 -c 2 -i 19 -a 2 -x {1.0 5.1 6 ------- null}
h -t 1.18112 -s 1 -d 2 -p tcp -e 1040 -c 2 -i 19 -a 2 -x {1.0 5.1 -1 ------- null}
r -t 1.1828 -s 1 -d 2 -p tcp -e 1040 -c 2 -i 15 -a 2 -x {1.0 5.1 4 ------- null}
+ -t 1.1828 -s 2 -d 3 -p tcp -e 1040 -c 2 -i 15 -a 2 -x {1.0 5.1 4 ------- null}
r -t 1.1828 -s 0 -d 2 -p tcp -e 1040 -c 1 -i 16 -a 1 -x {0.0 5.0 5 ------- null}
+ -t 1.1828 -s 2 -d 3 -p tcp -e 1040 -c 1 -i 16 -a 1 -x {0.0 5.0 5 ------- null}
- -t 1.1828 -s 2 -d 3 -p tcp -e 1040 -c 1 -i 13 -a 1 -x {0.0 5.0 4 ------- null}
h -t 1.1828 -s 2 -d 3 -p tcp -e 1040 -c 1 -i 13 -a 1 -x {0.0 5.0 -1 ------- null}
r -t 1.18448 -s 2 -d 3 -p tcp -e 1040 -c 1 -i 12 -a 1 -x {0.0 5.0 3 ------- null}
+ -t 1.18448 -s 3 -d 5 -p tcp -e 1040 -c 1 -i 12 -a 1 -x {0.0 5.0 3 ------- null}
- -t 1.18448 -s 3 -d 5 -p tcp -e 1040 -c 1 -i 12 -a 1 -x {0.0 5.0 3 ------- null}
h -t 1.18448 -s 3 -d 5 -p tcp -e 1040 -c 1 -i 12 -a 1 -x {0.0 5.0 -1 ------- null}
r -t 1.19112 -s 1 -d 2 -p tcp -e 1040 -c 2 -i 18 -a 2 -x {1.0 5.1 5 ------- null}
+ -t 1.19112 -s 2 -d 3 -p tcp -e 1040 -c 2 -i 18 -a 2 -x {1.0 5.1 5 ------- null}
r -t 1.19112 -s 0 -d 2 -p tcp -e 1040 -c 1 -i 17 -a 1 -x {0.0 5.0 6 ------- null}
+ -t 1.19112 -s 2 -d 3 -p tcp -e 1040 -c 1 -i 17 -a 1 -x {0.0 5.0 6 ------- null}
- -t 1.19112 -s 2 -d 3 -p tcp -e 1040 -c 2 -i 15 -a 2 -x {1.0 5.1 4 ------- null}
h -t 1.19112 -s 2 -d 3 -p tcp -e 1040 -c 2 -i 15 -a 2 -x {1.0 5.1 -1 ------- null}
r -t 1.1928 -s 2 -d 3 -p tcp -e 1040 -c 2 -i 14 -a 2 -x {1.0 5.1 3 ------- null}
+ -t 1.1928 -s 3 -d 5 -p tcp -e 1040 -c 2 -i 14 -a 2 -x {1.0 5.1 3 ------- null}
- -t 1.1928 -s 3 -d 5 -p tcp -e 1040 -c 2 -i 14 -a 2 -x {1.0 5.1 3 ------- null}
h -t 1.1928 -s 3 -d 5 -p tcp -e 1040 -c 2 -i 14 -a 2 -x {1.0 5.1 -1 ------- null}
r -t 1.19944 -s 1 -d 2 -p tcp -e 1040 -c 2 -i 19 -a 2 -x {1.0 5.1 6 ------- null}
+ -t 1.19944 -s 2 -d 3 -p tcp -e 1040 -c 2 -i 19 -a 2 -x {1.0 5.1 6 ------- null}
- -t 1.19944 -s 2 -d 3 -p tcp -e 1040 -c 1 -i 16 -a 1 -x {0.0 5.0 5 ------- null}
h -t 1.19944 -s 2 -d 3 -p tcp -e 1040 -c 1 -i 16 -a 1 -x {0.0 5.0 -1 ------- null}
r -t 1.20112 -s 2 -d 3 -p tcp -e 1040 -c 1 -i 13 -a 1 -x {0.0 5.0 4 ------- null}
+ -t 1.20112 -s 3 -d 5 -p tcp -e 1040 -c 1 -i 13 -a 1 -x {0.0 5.0 4 ------- null}
- -t 1.20112 -s 3 -d 5 -p tcp -e 1040 -c 1 -i 13 -a 1 -x {0.0 5.0 4 ------- null}
h -t 1.20112 -s 3 -d 5 -p tcp -e 1040 -c 1 -i 13 -a 1 -x {0.0 5.0 -1 ------- null}
r -t 1.2028 -s 3 -d 5 -p tcp -e 1040 -c 1 -i 12 -a 1 -x {0.0 5.0 3 ------- null}
+ -t 1.2028 -s 5 -d 3 -p ack -e 40 -c 1 -i 20 -a 1 -x {5.0 0.0 3 ------- null}
- -t 1.2028 -s 5 -d 3 -p ack -e 40 -c 1 -i 20 -a 1 -x {5.0 0.0 3 ------- null}
h -t 1.2028 -s 5 -d 3 -p ack -e 40 -c 1 -i 20 -a 1 -x {5.0 0.0 -1 ------- null}
- -t 1.20776 -s 2 -d 3 -p tcp -e 1040 -c 2 -i 18 -a 2 -x {1.0 5.1 5 ------- null}
h -t 1.20776 -s 2 -d 3 -p tcp -e 1040 -c 2 -i 18 -a 2 -x {1.0 5.1 -1 ------- null}
r -t 1.20944 -s 2 -d 3 -p tcp -e 1040 -c 2 -i 15 -a 2 -x {1.0 5.1 4 ------- null}
+ -t 1.20944 -s 3 -d 5 -p tcp -e 1040 -c 2 -i 15 -a 2 -x {1.0 5.1 4 ------- null}
- -t 1.20944 -s 3 -d 5 -p tcp -e 1040 -c 2 -i 15 -a 2 -x {1.0 5.1 4 ------- null}
h -t 1.20944 -s 3 -d 5 -p tcp -e 1040 -c 2 -i 15 -a 2 -x {1.0 5.1 -1 ------- null}
r -t 1.21112 -s 3 -d 5 -p tcp -e 1040 -c 2 -i 14 -a 2 -x {1.0 5.1 3 ------- null}
+ -t 1.21112 -s 5 -d 3 -p ack -e 40 -c 2 -i 21 -a 2 -x {5.1 1.0 3 ------- null}
- -t 1.21112 -s 5 -d 3 -p ack -e 40 -c 2 -i 21 -a 2 -x {5.1 1.0 3 ------- null}
h -t 1.21112 -s 5 -d 3 -p ack -e 40 -c 2 -i 21 -a 2 -x {5.1 1.0 -1 ------- null}
r -t 1.21312 -s 5 -d 3 -p ack -e 40 -c 1 -i 20 -a 1 -x {5.0 0.0 3 ------- null}
+ -t 1.21312 -s 3 -d 2 -p ack -e 40 -c 1 -i 20 -a 1 -x {5.0 0.0 3 ------- null}
- -t 1.21312 -s 3 -d 2 -p ack -e 40 -c 1 -i 20 -a 1 -x {5.0 0.0 3 ------- null}
h -t 1.21312 -s 3 -d 2 -p ack -e 40 -c 1 -i 20 -a 1 -x {5.0 0.0 -1 ------- null}
- -t 1.21608 -s 2 -d 3 -p tcp -e 1040 -c 1 -i 17 -a 1 -x {0.0 5.0 6 ------- null}
h -t 1.21608 -s 2 -d 3 -p tcp -e 1040 -c 1 -i 17 -a 1 -x {0.0 5.0 -1 ------- null}
r -t 1.21776 -s 2 -d 3 -p tcp -e 1040 -c 1 -i 16 -a 1 -x {0.0 5.0 5 ------- null}
+ -t 1.21776 -s 3 -d 5 -p tcp -e 1040 -c 1 -i 16 -a 1 -x {0.0 5.0 5 ------- null}
- -t 1.21776 -s 3 -d 5 -p tcp -e 1040 -c 1 -i 16 -a 1 -x {0.0 5.0 5 ------- null}
h -t 1.21776 -s 3 -d 5 -p tcp -e 1040 -c 1 -i 16 -a 1 -x {0.0 5.0 -1 ------- null}
r -t 1.21944 -s 3 -d 5 -p tcp -e 1040 -c 1 -i 13 -a 1 -x {0.0 5.0 4 ------- null}
+ -t 1.21944 -s 5 -d 3 -p ack -e 40 -c 1 -i 22 -a 1 -x {5.0 0.0 4 ------- null}
- -t 1.21944 -s 5 -d 3 -p ack -e 40 -c 1 -i 22 -a 1 -x {5.0 0.0 4 ------- null}
h -t 1.21944 -s 5 -d 3 -p ack -e 40 -c 1 -i 22 -a 1 -x {5.0 0.0 -1 ------- null}
r -t 1.22144 -s 5 -d 3 -p ack -e 40 -c 2 -i 21 -a 2 -x {5.1 1.0 3 ------- null}
+ -t 1.22144 -s 3 -d 2 -p ack -e 40 -c 2 -i 21 -a 2 -x {5.1 1.0 3 ------- null}
- -t 1.22144 -s 3 -d 2 -p ack -e 40 -c 2 -i 21 -a 2 -x {5.1 1.0 3 ------- null}
h -t 1.22144 -s 3 -d 2 -p ack -e 40 -c 2 -i 21 -a 2 -x {5.1 1.0 -1 ------- null}
r -t 1.22344 -s 3 -d 2 -p ack -e 40 -c 1 -i 20 -a 1 -x {5.0 0.0 3 ------- null}
+ -t 1.22344 -s 2 -d 0 -p ack -e 40 -c 1 -i 20 -a 1 -x {5.0 0.0 3 ------- null}
- -t 1.22344 -s 2 -d 0 -p ack -e 40 -c 1 -i 20 -a 1 -x {5.0 0.0 3 ------- null}
h -t 1.22344 -s 2 -d 0 -p ack -e 40 -c 1 -i 20 -a 1 -x {5.0 0.0 -1 ------- null}
- -t 1.2244 -s 2 -d 3 -p tcp -e 1040 -c 2 -i 19 -a 2 -x {1.0 5.1 6 ------- null}
h -t 1.2244 -s 2 -d 3 -p tcp -e 1040 -c 2 -i 19 -a 2 -x {1.0 5.1 -1 ------- null}
r -t 1.22608 -s 2 -d 3 -p tcp -e 1040 -c 2 -i 18 -a 2 -x {1.0 5.1 5 ------- null}
+ -t 1.22608 -s 3 -d 5 -p tcp -e 1040 -c 2 -i 18 -a 2 -x {1.0 5.1 5 ------- null}
- -t 1.22608 -s 3 -d 5 -p tcp -e 1040 -c 2 -i 18 -a 2 -x {1.0 5.1 5 ------- null}
h -t 1.22608 -s 3 -d 5 -p tcp -e 1040 -c 2 -i 18 -a 2 -x {1.0 5.1 -1 ------- null}
r -t 1.22776 -s 3 -d 5 -p tcp -e 1040 -c 2 -i 15 -a 2 -x {1.0 5.1 4 ------- null}
+ -t 1.22776 -s 5 -d 3 -p ack -e 40 -c 2 -i 23 -a 2 -x {5.1 1.0 4 ------- null}
- -t 1.22776 -s 5 -d 3 -p ack -e 40 -c 2 -i 23 -a 2 -x {5.1 1.0 4 ------- null}
h -t 1.22776 -s 5 -d 3 -p ack -e 40 -c 2 -i 23 -a 2 -x {5.1 1.0 -1 ------- null}
r -t 1.22976 -s 5 -d 3 -p ack -e 40 -c 1 -i 22 -a 1 -x {5.0 0.0 4 ------- null}
+ -t 1.22976 -s 3 -d 2 -p ack -e 40 -c 1 -i 22 -a 1 -x {5.0 0.0 4 ------- null}
- -t 1.22976 -s 3 -d 2 -p ack -e 40 -c 1 -i 22 -a 1 -x {5.0 0.0 4 ------- null}
h -t 1.22976 -s 3 -d 2 -p ack -e 40 -c 1 -i 22 -a 1 -x {5.0 0.0 -1 ------- null}
r -t 1.23176 -s 3 -d 2 -p ack -e 40 -c 2 -i 21 -a 2 -x {5.1 1.0 3 ------- null}
+ -t 1.23176 -s 2 -d 1 -p ack -e 40 -c 2 -i 21 -a 2 -x {5.1 1.0 3 ------- null}
- -t 1.23176 -s 2 -d 1 -p ack -e 40 -c 2 -i 21 -a 2 -x {5.1 1.0 3 ------- null}
h -t 1.23176 -s 2 -d 1 -p ack -e 40 -c 2 -i 21 -a 2 -x {5.1 1.0 -1 ------- null}
r -t 1.23376 -s 2 -d 0 -p ack -e 40 -c 1 -i 20 -a 1 -x {5.0 0.0 3 ------- null}
+ -t 1.23376 -s 0 -d 2 -p tcp -e 1040 -c 1 -i 24 -a 1 -x {0.0 5.0 7 ------- null}
- -t 1.23376 -s 0 -d 2 -p tcp -e 1040 -c 1 -i 24 -a 1 -x {0.0 5.0 7 ------- null}
h -t 1.23376 -s 0 -d 2 -p tcp -e 1040 -c 1 -i 24 -a 1 -x {0.0 5.0 -1 ------- null}
+ -t 1.23376 -s 0 -d 2 -p tcp -e 1040 -c 1 -i 25 -a 1 -x {0.0 5.0 8 ------- null}
r -t 1.2344 -s 2 -d 3 -p tcp -e 1040 -c 1 -i 17 -a 1 -x {0.0 5.0 6 ------- null}
+ -t 1.2344 -s 3 -d 5 -p tcp -e 1040 -c 1 -i 17 -a 1 -x {0.0 5.0 6 ------- null}
- -t 1.2344 -s 3 -d 5 -p tcp -e 1040 -c 1 -i 17 -a 1 -x {0.0 5.0 6 ------- null}
h -t 1.2344 -s 3 -d 5 -p tcp -e 1040 -c 1 -i 17 -a 1 -x {0.0 5.0 -1 ------- null}
r -t 1.23608 -s 3 -d 5 -p tcp -e 1040 -c 1 -i 16 -a 1 -x {0.0 5.0 5 ------- null}
+ -t 1.23608 -s 5 -d 3 -p ack -e 40 -c 1 -i 26 -a 1 -x {5.0 0.0 5 ------- null}
- -t 1.23608 -s 5 -d 3 -p ack -e 40 -c 1 -i 26 -a 1 -x {5.0 0.0 5 ------- null}
h -t 1.23608 -s 5 -d 3 -p ack -e 40 -c 1 -i 26 -a 1 -x {5.0 0.0 -1 ------- null}
r -t 1.23808 -s 5 -d 3 -p ack -e 40 -c 2 -i 23 -a 2 -x {5.1 1.0 4 ------- null}
+ -t 1.23808 -s 3 -d 2 -p ack -e 40 -c 2 -i 23 -a 2 -x {5.1 1.0 4 ------- null}
- -t 1.23808 -s 3 -d 2 -p ack -e 40 -c 2 -i 23 -a 2 -x {5.1 1.0 4 ------- null}
h -t 1.23808 -s 3 -d 2 -p ack -e 40 -c 2 -i 23 -a 2 -x {5.1 1.0 -1 ------- null}
r -t 1.24008 -s 3 -d 2 -p ack -e 40 -c 1 -i 22 -a 1 -x {5.0 0.0 4 ------- null}
+ -t 1.24008 -s 2 -d 0 -p ack -e 40 -c 1 -i 22 -a 1 -x {5.0 0.0 4 ------- null}
- -t 1.24008 -s 2 -d 0 -p ack -e 40 -c 1 -i 22 -a 1 -x {5.0 0.0 4 ------- null}
h -t 1.24008 -s 2 -d 0 -p ack -e 40 -c 1 -i 22 -a 1 -x {5.0 0.0 -1 ------- null}
r -t 1.24208 -s 2 -d 1 -p ack -e 40 -c 2 -i 21 -a 2 -x {5.1 1.0 3 ------- null}
+ -t 1.24208 -s 1 -d 2 -p tcp -e 1040 -c 2 -i 27 -a 2 -x {1.0 5.1 7 ------- null}
- -t 1.24208 -s 1 -d 2 -p tcp -e 1040 -c 2 -i 27 -a 2 -x {1.0 5.1 7 ------- null}
h -t 1.24208 -s 1 -d 2 -p tcp -e 1040 -c 2 -i 27 -a 2 -x {1.0 5.1 -1 ------- null}
+ -t 1.24208 -s 1 -d 2 -p tcp -e 1040 -c 2 -i 28 -a 2 -x {1.0 5.1 8 ------- null}
- -t 1.24208 -s 0 -d 2 -p tcp -e 1040 -c 1 -i 25 -a 1 -x {0.0 5.0 8 ------- null}
h -t 1.24208 -s 0 -d 2 -p tcp -e 1040 -c 1 -i 25 -a 1 -x {0.0 5.0 -1 ------- null}
r -t 1.24272 -s 2 -d 3 -p tcp -e 1040 -c 2 -i 19 -a 2 -x {1.0 5.1 6 ------- null}
+ -t 1.24272 -s 3 -d 5 -p tcp -e 1040 -c 2 -i 19 -a 2 -x {1.0 5.1 6 ------- null}
- -t 1.24272 -s 3 -d 5 -p tcp -e 1040 -c 2 -i 19 -a 2 -x {1.0 5.1 6 ------- null}
h -t 1.24272 -s 3 -d 5 -p tcp -e 1040 -c 2 -i 19 -a 2 -x {1.0 5.1 -1 ------- null}
r -t 1.2444 -s 3 -d 5 -p tcp -e 1040 -c 2 -i 18 -a 2 -x {1.0 5.1 5 ------- null}
+ -t 1.2444 -s 5 -d 3 -p ack -e 40 -c 2 -i 29 -a 2 -x {5.1 1.0 5 ------- null}
- -t 1.2444 -s 5 -d 3 -p ack -e 40 -c 2 -i 29 -a 2 -x {5.1 1.0 5 ------- null}
h -t 1.2444 -s 5 -d 3 -p ack -e 40 -c 2 -i 29 -a 2 -x {5.1 1.0 -1 ------- null}
r -t 1.2464 -s 5 -d 3 -p ack -e 40 -c 1 -i 26 -a 1 -x {5.0 0.0 5 ------- null}
+ -t 1.2464 -s 3 -d 2 -p ack -e 40 -c 1 -i 26 -a 1 -x {5.0 0.0 5 ------- null}
- -t 1.2464 -s 3 -d 2 -p ack -e 40 -c 1 -i 26 -a 1 -x {5.0 0.0 5 ------- null}
h -t 1.2464 -s 3 -d 2 -p ack -e 40 -c 1 -i 26 -a 1 -x {5.0 0.0 -1 ------- null}
r -t 1.2484 -s 3 -d 2 -p ack -e 40 -c 2 -i 23 -a 2 -x {5.1 1.0 4 ------- null}
+ -t 1.2484 -s 2 -d 1 -p ack -e 40 -c 2 -i 23 -a 2 -x {5.1 1.0 4 ------- null}
- -t 1.2484 -s 2 -d 1 -p ack -e 40 -c 2 -i 23 -a 2 -x {5.1 1.0 4 ------- null}
h -t 1.2484 -s 2 -d 1 -p ack -e 40 -c 2 -i 23 -a 2 -x {5.1 1.0 -1 ------- null}
r -t 1.2504 -s 2 -d 0 -p ack -e 40 -c 1 -i 22 -a 1 -x {5.0 0.0 4 ------- null}
+ -t 1.2504 -s 0 -d 2 -p tcp -e 1040 -c 1 -i 30 -a 1 -x {0.0 5.0 9 ------- null}
+ -t 1.2504 -s 0 -d 2 -p tcp -e 1040 -c 1 -i 31 -a 1 -x {0.0 5.0 10 ------- null}
- -t 1.2504 -s 1 -d 2 -p tcp -e 1040 -c 2 -i 28 -a 2 -x {1.0 5.1 8 ------- null}
h -t 1.2504 -s 1 -d 2 -p tcp -e 1040 -c 2 -i 28 -a 2 -x {1.0 5.1 -1 ------- null}
- -t 1.2504 -s 0 -d 2 -p tcp -e 1040 -c 1 -i 30 -a 1 -x {0.0 5.0 9 ------- null}
h -t 1.2504 -s 0 -d 2 -p tcp -e 1040 -c 1 -i 30 -a 1 -x {0.0 5.0 -1 ------- null}
r -t 1.25208 -s 0 -d 2 -p tcp -e 1040 -c 1 -i 24 -a 1 -x {0.0 5.0 7 ------- null}
+ -t 1.25208 -s 2 -d 3 -p tcp -e 1040 -c 1 -i 24 -a 1 -x {0.0 5.0 7 ------- null}
- -t 1.25208 -s 2 -d 3 -p tcp -e 1040 -c 1 -i 24 -a 1 -x {0.0 5.0 7 ------- null}
h -t 1.25208 -s 2 -d 3 -p tcp -e 1040 -c 1 -i 24 -a 1 -x {0.0 5.0 -1 ------- null}
r -t 1.25272 -s 3 -d 5 -p tcp -e 1040 -c 1 -i 17 -a 1 -x {0.0 5.0 6 ------- null}
+ -t 1.25272 -s 5 -d 3 -p ack -e 40 -c 1 -i 32 -a 1 -x {5.0 0.0 6 ------- null}
- -t 1.25272 -s 5 -d 3 -p ack -e 40 -c 1 -i 32 -a 1 -x {5.0 0.0 6 ------- null}
h -t 1.25272 -s 5 -d 3 -p ack -e 40 -c 1 -i 32 -a 1 -x {5.0 0.0 -1 ------- null}
r -t 1.25472 -s 5 -d 3 -p ack -e 40 -c 2 -i 29 -a 2 -x {5.1 1.0 5 ------- null}
+ -t 1.25472 -s 3 -d 2 -p ack -e 40 -c 2 -i 29 -a 2 -x {5.1 1.0 5 ------- null}
- -t 1.25472 -s 3 -d 2 -p ack -e 40 -c 2 -i 29 -a 2 -x {5.1 1.0 5 ------- null}
h -t 1.25472 -s 3 -d 2 -p ack -e 40 -c 2 -i 29 -a 2 -x {5.1 1.0 -1 ------- null}
r -t 1.25672 -s 3 -d 2 -p ack -e 40 -c 1 -i 26 -a 1 -x {5.0 0.0 5 ------- null}
+ -t 1.25672 -s 2 -d 0 -p ack -e 40 -c 1 -i 26 -a 1 -x {5.0 0.0 5 ------- null}
- -t 1.25672 -s 2 -d 0 -p ack -e 40 -c 1 -i 26 -a 1 -x {5.0 0.0 5 ------- null}
h -t 1.25672 -s 2 -d 0 -p ack -e 40 -c 1 -i 26 -a 1 -x {5.0 0.0 -1 ------- null}
r -t 1.25872 -s 2 -d 1 -p ack -e 40 -c 2 -i 23 -a 2 -x {5.1 1.0 4 ------- null}
+ -t 1.25872 -s 1 -d 2 -p tcp -e 1040 -c 2 -i 33 -a 2 -x {1.0 5.1 9 ------- null}
+ -t 1.25872 -s 1 -d 2 -p tcp -e 1040 -c 2 -i 34 -a 2 -x {1.0 5.1 10 ------- null}
- -t 1.25872 -s 1 -d 2 -p tcp -e 1040 -c 2 -i 33 -a 2 -x {1.0 5.1 9 ------- null}
h -t 1.25872 -s 1 -d 2 -p tcp -e 1040 -c 2 -i 33 -a 2 -x {1.0 5.1 -1 ------- null}
- -t 1.25872 -s 0 -d 2 -p tcp -e 1040 -c 1 -i 31 -a 1 -x {0.0 5.0 10 ------- null}
h -t 1.25872 -s 0 -d 2 -p tcp -e 1040 -c 1 -i 31 -a 1 -x {0.0 5.0 -1 ------- null}
r -t 1.2604 -s 1 -d 2 -p tcp -e 1040 -c 2 -i 27 -a 2 -x {1.0 5.1 7 ------- null}
+ -t 1.2604 -s 2 -d 3 -p tcp -e 1040 -c 2 -i 27 -a 2 -x {1.0 5.1 7 ------- null}
r -t 1.2604 -s 0 -d 2 -p tcp -e 1040 -c 1 -i 25 -a 1 -x {0.0 5.0 8 ------- null}
+ -t 1.2604 -s 2 -d 3 -p tcp -e 1040 -c 1 -i 25 -a 1 -x {0.0 5.0 8 ------- null}
- -t 1.2604 -s 2 -d 3 -p tcp -e 1040 -c 2 -i 27 -a 2 -x {1.0 5.1 7 ------- null}
h -t 1.2604 -s 2 -d 3 -p tcp -e 1040 -c 2 -i 27 -a 2 -x {1.0 5.1 -1 ------- null}
r -t 1.26104 -s 3 -d 5 -p tcp -e 1040 -c 2 -i 19 -a 2 -x {1.0 5.1 6 ------- null}
+ -t 1.26104 -s 5 -d 3 -p ack -e 40 -c 2 -i 35 -a 2 -x {5.1 1.0 6 ------- null}
- -t 1.26104 -s 5 -d 3 -p ack -e 40 -c 2 -i 35 -a 2 -x {5.1 1.0 6 ------- null}
h -t 1.26104 -s 5 -d 3 -p ack -e 40 -c 2 -i 35 -a 2 -x {5.1 1.0 -1 ------- null}
r -t 1.26304 -s 5 -d 3 -p ack -e 40 -c 1 -i 32 -a 1 -x {5.0 0.0 6 ------- null}
+ -t 1.26304 -s 3 -d 2 -p ack -e 40 -c 1 -i 32 -a 1 -x {5.0 0.0 6 ------- null}
- -t 1.26304 -s 3 -d 2 -p ack -e 40 -c 1 -i 32 -a 1 -x {5.0 0.0 6 ------- null}
h -t 1.26304 -s 3 -d 2 -p ack -e 40 -c 1 -i 32 -a 1 -x {5.0 0.0 -1 ------- null}
r -t 1.26504 -s 3 -d 2 -p ack -e 40 -c 2 -i 29 -a 2 -x {5.1 1.0 5 ------- null}
+ -t 1.26504 -s 2 -d 1 -p ack -e 40 -c 2 -i 29 -a 2 -x {5.1 1.0 5 ------- null}
- -t 1.26504 -s 2 -d 1 -p ack -e 40 -c 2 -i 29 -a 2 -x {5.1 1.0 5 ------- null}
h -t 1.26504 -s 2 -d 1 -p ack -e 40 -c 2 -i 29 -a 2 -x {5.1 1.0 -1 ------- null}
r -t 1.26704 -s 2 -d 0 -p ack -e 40 -c 1 -i 26 -a 1 -x {5.0 0.0 5 ------- null}
+ -t 1.26704 -s 0 -d 2 -p tcp -e 1040 -c 1 -i 36 -a 1 -x {0.0 5.0 11 ------- null}
+ -t 1.26704 -s 0 -d 2 -p tcp -e 1040 -c 1 -i 37 -a 1 -x {0.0 5.0 12 ------- null}
- -t 1.26704 -s 1 -d 2 -p tcp -e 1040 -c 2 -i 34 -a 2 -x {1.0 5.1 10 ------- null}
h -t 1.26704 -s 1 -d 2 -p tcp -e 1040 -c 2 -i 34 -a 2 -x {1.0 5.1 -1 ------- null}
- -t 1.26704 -s 0 -d 2 -p tcp -e 1040 -c 1 -i 36 -a 1 -x {0.0 5.0 11 ------- null}
h -t 1.26704 -s 0 -d 2 -p tcp -e 1040 -c 1 -i 36 -a 1 -x {0.0 5.0 -1 ------- null}
r -t 1.26872 -s 1 -d 2 -p tcp -e 1040 -c 2 -i 28 -a 2 -x {1.0 5.1 8 ------- null}
+ -t 1.26872 -s 2 -d 3 -p tcp -e 1040 -c 2 -i 28 -a 2 -x {1.0 5.1 8 ------- null}
r -t 1.26872 -s 0 -d 2 -p tcp -e 1040 -c 1 -i 30 -a 1 -x {0.0 5.0 9 ------- null}
+ -t 1.26872 -s 2 -d 3 -p tcp -e 1040 -c 1 -i 30 -a 1 -x {0.0 5.0 9 ------- null}