+ 1 0 2 tcp 40 ------- 1 0.0 5.0 0 0
- 1 0 2 tcp 40 ------- 1 0.0 5.0 0 0
+ 1 1 2 tcp 40 ------- 2 1.0 5.1 0 1
- 1 1 2 tcp 40 ------- 2 1.0 5.1 0 1
r 1.01032 0 2 tcp 40 ------- 1 0.0 5.0 0 0
+ 1.01032 2 3 tcp 40 ------- 1 0.0 5.0 0 0
- 1.01032 2 3 tcp 40 ------- 1 0.0 5.0 0 0
r 1.01032 1 2 tcp 40 ------- 2 1.0 5.1 0 1
+ 1.01032 2 3 tcp 40 ------- 2 1.0 5.1 0 1
- 1.01064 2 3 tcp 40 ------- 2 1.0 5.1 0 1
r 1.02064 2 3 tcp 40 ------- 1 0.0 5.0 0 0
+ 1.02064 3 5 tcp 40 ------- 1 0.0 5.0 0 0
- 1.02064 3 5 tcp 40 ------- 1 0.0 5.0 0 0
r 1.02096 2 3 tcp 40 ------- 2 1.0 5.1 0 1
+ 1.02096 3 5 tcp 40 ------- 2 1.0 5.1 0 1
- 1.02096 3 5 tcp 40 ------- 2 1.0 5.1 0 1
r 1.03096 3 5 tcp 40 ------- 1 0.0 5.0 0 0
+ 1.03096 5 3 ack 40 ------- 1 5.0 0.0 0 2
- 1.03096 5 3 ack 40 ------- 1 5.0 0.0 0 2
r 1.03128 3 5 tcp 40 ------- 2 1.0 5.1 0 1
+ 1.03128 5 3 ack 40 ------- 2 5.1 1.0 0 3
- 1.03128 5 3 ack 40 ------- 2 5.1 1.0 0 3
r 1.04128 5 3 ack 40 ------- 1 5.0 0.0 0 2
+ 1.04128 3 2 ack 40 ------- 1 5.0 0.0 0 2
- 1.04128 3 2 ack 40 ------- 1 5.0 0.0 0 2
r 1.0416 5 3 ack 40 ------- 2 5.1 1.0 0 3
+ 1.0416 3 2 ack 40 ------- 2 5.1 1.0 0 3
- 1.0416 3 2 ack 40 ------- 2 5.1 1.0 0 3
r 1.0516 3 2 ack 40 ------- 1 5.0 0.0 0 2
+ 1.0516 2 0 ack 40 ------- 1 5.0 0.0 0 2
- 1.0516 2 0 ack 40 ------- 1 5.0 0.0 0 2
r 1.05192 3 2 ack 40 ------- 2 5.1 1.0 0 3
+ 1.05192 2 1 ack 40 ------- 2 5.1 1.0 0 3
- 1.05192 2 1 ack 40 ------- 2 5.1 1.0 0 3
r 1.06192 2 0 ack 40 ------- 1 5.0 0.0 0 2
+ 1.06192 0 2 tcp 1040 ------- 1 0.0 5.0 1 4
- 1.06192 0 2 tcp 1040 ------- 1 0.0 5.0 1 4
+ 1.06192 0 2 tcp 1040 ------- 1 0.0 5.0 2 5
r 1.06224 2 1 ack 40 ------- 2 5.1 1.0 0 3
+ 1.06224 1 2 tcp 1040 ------- 2 1.0 5.1 1 6
- 1.06224 1 2 tcp 1040 ------- 2 1.0 5.1 1 6
+ 1.06224 1 2 tcp 1040 ------- 2 1.0 5.1 2 7
- 1.07024 0 2 tcp 1040 ------- 1 0.0 5.0 2 5
- 1.07056 1 2 tcp 1040 ------- 2 1.0 5.1 2 7
r 1.08024 0 2 tcp 1040 ------- 1 0.0 5.0 1 4
+ 1.08024 2 3 tcp 1040 ------- 1 0.0 5.0 1 4
- 1.08024 2 3 tcp 1040 ------- 1 0.0 5.0 1 4
r 1.08056 1 2 tcp 1040 ------- 2 1.0 5.1 1 6
+ 1.08056 2 3 tcp 1040 ------- 2 1.0 5.1 1 6
r 1.08856 0 2 tcp 1040 ------- 1 0.0 5.0 2 5
+ 1.08856 2 3 tcp 1040 ------- 1 0.0 5.0 2 5
- 1.08856 2 3 tcp 1040 ------- 2 1.0 5.1 1 6
r 1.08888 1 2 tcp 1040 ------- 2 1.0 5.1 2 7
+ 1.08888 2 3 tcp 1040 ------- 2 1.0 5.1 2 7
- 1.09688 2 3 tcp 1040 ------- 1 0.0 5.0 2 5
r 1.09856 2 3 tcp 1040 ------- 1 0.0 5.0 1 4
+ 1.09856 3 5 tcp 1040 ------- 1 0.0 5.0 1 4
- 1.09856 3 5 tcp 1040 ------- 1 0.0 5.0 1 4
- 1.1052 2 3 tcp 1040 ------- 2 1.0 5.1 2 7
r 1.10688 2 3 tcp 1040 ------- 2 1.0 5.1 1 6
+ 1.10688 3 5 tcp 1040 ------- 2 1.0 5.1 1 6
- 1.10688 3 5 tcp 1040 ------- 2 1.0 5.1 1 6
r 1.1152 2 3 tcp 1040 ------- 1 0.0 5.0 2 5
+ 1.1152 3 5 tcp 1040 ------- 1 0.0 5.0 2 5
- 1.1152 3 5 tcp 1040 ------- 1 0.0 5.0 2 5
r 1.11688 3 5 tcp 1040 ------- 1 0.0 5.0 1 4
+ 1.11688 5 3 ack 40 ------- 1 5.0 0.0 1 8
- 1.11688 5 3 ack 40 ------- 1 5.0 0.0 1 8
r 1.12352 2 3 tcp 1040 ------- 2 1.0 5.1 2 7
+ 1.12352 3 5 tcp 1040 ------- 2 1.0 5.1 2 7
- 1.12352 3 5 tcp 1040 ------- 2 1.0 5.1 2 7
r 1.1252 3 5 tcp 1040 ------- 2 1.0 5.1 1 6
+ 1.1252 5 3 ack 40 ------- 2 5.1 1.0 1 9
- 1.1252 5 3 ack 40 ------- 2 5.1 1.0 1 9
r 1.1272 5 3 ack 40 ------- 1 5.0 0.0 1 8
+ 1.1272 3 2 ack 40 ------- 1 5.0 0.0 1 8
- 1.1272 3 2 ack 40 ------- 1 5.0 0.0 1 8
r 1.13352 3 5 tcp 1040 ------- 1 0.0 5.0 2 5
+ 1.13352 5 3 ack 40 ------- 1 5.0 0.0 2 10
- 1.13352 5 3 ack 40 ------- 1 5.0 0.0 2 10
r 1.13552 5 3 ack 40 ------- 2 5.1 1.0 1 9
+ 1.13552 3 2 ack 40 ------- 2 5.1 1.0 1 9
- 1.13552 3 2 ack 40 ------- 2 5.1 1.0 1 9
r 1.13752 3 2 ack 40 ------- 1 5.0 0.0 1 8
+ 1.13752 2 0 ack 40 ------- 1 5.0 0.0 1 8
- 1.13752 2 0 ack 40 ------- 1 5.0 0.0 1 8
r 1.14184 3 5 tcp 1040 ------- 2 1.0 5.1 2 7
+ 1.14184 5 3 ack 40 ------- 2 5.1 1.0 2 11
- 1.14184 5 3 ack 40 ------- 2 5.1 1.0 2 11
r 1.14384 5 3 ack 40 ------- 1 5.0 0.0 2 10
+ 1.14384 3 2 ack 40 ------- 1 5.0 0.0 2 10
- 1.14384 3 2 ack 40 ------- 1 5.0 0.0 2 10
r 1.14584 3 2 ack 40 ------- 2 5.1 1.0 1 9
+ 1.14584 2 1 ack 40 ------- 2 5.1 1.0 1 9
- 1.14584 2 1 ack 40 ------- 2 5.1 1.0 1 9
r 1.14784 2 0 ack 40 ------- 1 5.0 0.0 1 8
+ 1.14784 0 2 tcp 1040 ------- 1 0.0 5.0 3 12
- 1.14784 0 2 tcp 1040 ------- 1 0.0 5.0 3 12
+ 1.14784 0 2 tcp 1040 ------- 1 0.0 5.0 4 13
r 1.15216 5 3 ack 40 ------- 2 5.1 1.0 2 11
+ 1.15216 3 2 ack 40 ------- 2 5.1 1.0 2 11
- 1.15216 3 2 ack 40 ------- 2 5.1 1.0 2 11
r 1.15416 3 2 ack 40 ------- 1 5.0 0.0 2 10
+ 1.15416 2 0 ack 40 ------- 1 5.0 0.0 2 10
- 1.15416 2 0 ack 40 ------- 1 5.0 0.0 2 10
r 1.15616 2 1 ack 40 ------- 2 5.1 1.0 1 9
+ 1.15616 1 2 tcp 1040 ------- 2 1.0 5.1 3 14
- 1.15616 1 2 tcp 1040 ------- 2 1.0 5.1 3 14
+ 1.15616 1 2 tcp 1040 ------- 2 1.0 5.1 4 15
- 1.15616 0 2 tcp 1040 ------- 1 0.0 5.0 4 13
r 1.16248 3 2 ack 40 ------- 2 5.1 1.0 2 11
+ 1.16248 2 1 ack 40 ------- 2 5.1 1.0 2 11
- 1.16248 2 1 ack 40 ------- 2 5.1 1.0 2 11
r 1.16448 2 0 ack 40 ------- 1 5.0 0.0 2 10
+ 1.16448 0 2 tcp 1040 ------- 1 0.0 5.0 5 16
+ 1.16448 0 2 tcp 1040 ------- 1 0.0 5.0 6 17
- 1.16448 1 2 tcp 1040 ------- 2 1.0 5.1 4 15
- 1.16448 0 2 tcp 1040 ------- 1 0.0 5.0 5 16
r 1.16616 0 2 tcp 1040 ------- 1 0.0 5.0 3 12
+ 1.16616 2 3 tcp 1040 ------- 1 0.0 5.0 3 12
- 1.16616 2 3 tcp 1040 ------- 1 0.0 5.0 3 12
r 1.1728 2 1 ack 40 ------- 2 5.1 1.0 2 11
+ 1.1728 1 2 tcp 1040 ------- 2 1.0 5.1 5 18
+ 1.1728 1 2 tcp 1040 ------- 2 1.0 5.1 6 19
- 1.1728 1 2 tcp 1040 ------- 2 1.0 5.1 5 18
- 1.1728 0 2 tcp 1040 ------- 1 0.0 5.0 6 17
r 1.17448 1 2 tcp 1040 ------- 2 1.0 5.1 3 14
+ 1.17448 2 3 tcp 1040 ------- 2 1.0 5.1 3 14
r 1.17448 0 2 tcp 1040 ------- 1 0.0 5.0 4 13
+ 1.17448 2 3 tcp 1040 ------- 1 0.0 5.0 4 13
- 1.17448 2 3 tcp 1040 ------- 2 1.0 5.1 3 14
- 1.18112 1 2 tcp 1040 ------- 2 1.0 5.1 6 19
r 1.1828 1 2 tcp 1040 ------- 2 1.0 5.1 4 15
+ 1.1828 2 3 tcp 1040 ------- 2 1.0 5.1 4 15
r 1.1828 0 2 tcp 1040 ------- 1 0.0 5.0 5 16
+ 1.1828 2 3 tcp 1040 ------- 1 0.0 5.0 5 16
- 1.1828 2 3 tcp 1040 ------- 1 0.0 5.0 4 13
r 1.18448 2 3 tcp 1040 ------- 1 0.0 5.0 3 12
+ 1.18448 3 5 tcp 1040 ------- 1 0.0 5.0 3 12
- 1.18448 3 5 tcp 1040 ------- 1 0.0 5.0 3 12
r 1.19112 1 2 tcp 1040 ------- 2 1.0 5.1 5 18
+ 1.19112 2 3 tcp 1040 ------- 2 1.0 5.1 5 18
r 1.19112 0 2 tcp 1040 ------- 1 0.0 5.0 6 17
+ 1.19112 2 3 tcp 1040 ------- 1 0.0 5.0 6 17
- 1.19112 2 3 tcp 1040 ------- 2 1.0 5.1 4 15
r 1.1928 2 3 tcp 1040 ------- 2 1.0 5.1 3 14
+ 1.1928 3 5 tcp 1040 ------- 2 1.0 5.1 3 14
- 1.1928 3 5 tcp 1040 ------- 2 1.0 5.1 3 14
r 1.19944 1 2 tcp 1040 ------- 2 1.0 5.1 6 19
+ 1.19944 2 3 tcp 1040 ------- 2 1.0 5.1 6 19
- 1.19944 2 3 tcp 1040 ------- 1 0.0 5.0 5 16
r 1.20112 2 3 tcp 1040 ------- 1 0.0 5.0 4 13
+ 1.20112 3 5 tcp 1040 ------- 1 0.0 5.0 4 13
- 1.20112 3 5 tcp 1040 ------- 1 0.0 5.0 4 13
r 1.2028 3 5 tcp 1040 ------- 1 0.0 5.0 3 12
+ 1.2028 5 3 ack 40 ------- 1 5.0 0.0 3 20
- 1.2028 5 3 ack 40 ------- 1 5.0 0.0 3 20
- 1.20776 2 3 tcp 1040 ------- 2 1.0 5.1 5 18
r 1.20944 2 3 tcp 1040 ------- 2 1.0 5.1 4 15
+ 1.20944 3 5 tcp 1040 ------- 2 1.0 5.1 4 15
- 1.20944 3 5 tcp 1040 ------- 2 1.0 5.1 4 15
r 1.21112 3 5 tcp 1040 ------- 2 1.0 5.1 3 14
+ 1.21112 5 3 ack 40 ------- 2 5.1 1.0 3 21
- 1.21112 5 3 ack 40 ------- 2 5.1 1.0 3 21
r 1.21312 5 3 ack 40 ------- 1 5.0 0.0 3 20
+ 1.21312 3 2 ack 40 ------- 1 5.0 0.0 3 20
- 1.21312 3 2 ack 40 ------- 1 5.0 0.0 3 20
- 1.21608 2 3 tcp 1040 ------- 1 0.0 5.0 6 17
r 1.21776 2 3 tcp 1040 ------- 1 0.0 5.0 5 16
+ 1.21776 3 5 tcp 1040 ------- 1 0.0 5.0 5 16
- 1.21776 3 5 tcp 1040 ------- 1 0.0 5.0 5 16
r 1.21944 3 5 tcp 1040 ------- 1 0.0 5.0 4 13
+ 1.21944 5 3 ack 40 ------- 1 5.0 0.0 4 22
- 1.21944 5 3 ack 40 ------- 1 5.0 0.0 4 22
r 1.22144 5 3 ack 40 ------- 2 5.1 1.0 3 21
+ 1.22144 3 2 ack 40 ------- 2 5.1 1.0 3 21
- 1.22144 3 2 ack 40 ------- 2 5.1 1.0 3 21
r 1.22344 3 2 ack 40 ------- 1 5.0 0.0 3 20
+ 1.22344 2 0 ack 40 ------- 1 5.0 0.0 3 20
- 1.22344 2 0 ack 40 ------- 1 5.0 0.0 3 20
- 1.2244 2 3 tcp 1040 ------- 2 1.0 5.1 6 19
r 1.22608 2 3 tcp 1040 ------- 2 1.0 5.1 5 18
+ 1.22608 3 5 tcp 1040 ------- 2 1.0 5.1 5 18
- 1.22608 3 5 tcp 1040 ------- 2 1.0 5.1 5 18
r 1.22776 3 5 tcp 1040 ------- 2 1.0 5.1 4 15
+ 1.22776 5 3 ack 40 ------- 2 5.1 1.0 4 23
- 1.22776 5 3 ack 40 ------- 2 5.1 1.0 4 23
r 1.22976 5 3 ack 40 ------- 1 5.0 0.0 4 22
+ 1.22976 3 2 ack 40 ------- 1 5.0 0.0 4 22
- 1.22976 3 2 ack 40 ------- 1 5.0 0.0 4 22
r 1.23176 3 2 ack 40 ------- 2 5.1 1.0 3 21
+ 1.23176 2 1 ack 40 ------- 2 5.1 1.0 3 21
- 1.23176 2 1 ack 40 ------- 2 5.1 1.0 3 21
r 1.23376 2 0 ack 40 ------- 1 5.0 0.0 3 20
+ 1.23376 0 2 tcp 1040 ------- 1 0.0 5.0 7 24
- 1.23376 0 2 tcp 1040 ------- 1 0.0 5.0 7 24
+ 1.23376 0 2 tcp 1040 ------- 1 0.0 5.0 8 25
r 1.2344 2 3 tcp 1040 ------- 1 0.0 5.0 6 17
+ 1.2344 3 5 tcp 1040 ------- 1 0.0 5.0 6 17
- 1.2344 3 5 tcp 1040 ------- 1 0.0 5.0 6 17
r 1.23608 3 5 tcp 1040 ------- 1 0.0 5.0 5 16
+ 1.23608 5 3 ack 40 ------- 1 5.0 0.0 5 26
- 1.23608 5 3 ack 40 ------- 1 5.0 0.0 5 26
r 1.23808 5 3 ack 40 ------- 2 5.1 1.0 4 23
+ 1.23808 3 2 ack 40 ------- 2 5.1 1.0 4 23
- 1.23808 3 2 ack 40 ------- 2 5.1 1.0 4 23
r 1.24008 3 2 ack 40 ------- 1 5.0 0.0 4 22
+ 1.24008 2 0 ack 40 ------- 1 5.0 0.0 4 22
- 1.24008 2 0 ack 40 ------- 1 5.0 0.0 4 22
r 1.24208 2 1 ack 40 ------- 2 5.1 1.0 3 21
+ 1.24208 1 2 tcp 1040 ------- 2 1.0 5.1 7 27
- 1.24208 1 2 tcp 1040 ------- 2 1.0 5.1 7 27
+ 1.24208 1 2 tcp 1040 ------- 2 1.0 5.1 8 28
- 1.24208 0 2 tcp 1040 ------- 1 0.0 5.0 8 25
r 1.24272 2 3 tcp 1040 ------- 2 1.0 5.1 6 19
+ 1.24272 3 5 tcp 1040 ------- 2 1.0 5.1 6 19
- 1.24272 3 5 tcp 1040 ------- 2 1.0 5.1 6 19
r 1.2444 3 5 tcp 1040 ------- 2 1.0 5.1 5 18
+ 1.2444 5 3 ack 40 ------- 2 5.1 1.0 5 29
- 1.2444 5 3 ack 40 ------- 2 5.1 1.0 5 29
r 1.2464 5 3 ack 40 ------- 1 5.0 0.0 5 26
+ 1.2464 3 2 ack 40 ------- 1 5.0 0.0 5 26
- 1.2464 3 2 ack 40 ------- 1 5.0 0.0 5 26
r 1.2484 3 2 ack 40 ------- 2 5.1 1.0 4 23
+ 1.2484 2 1 ack 40 ------- 2 5.1 1.0 4 23
- 1.2484 2 1 ack 40 ------- 2 5.1 1.0 4 23
r 1.2504 2 0 ack 40 ------- 1 5.0 0.0 4 22
+ 1.2504 0 2 tcp 1040 ------- 1 0.0 5.0 9 30
+ 1.2504 0 2 tcp 1040 ------- 1 0.0 5.0 10 31
- 1.2504 1 2 tcp 1040 ------- 2 1.0 5.1 8 28
- 1.2504 0 2 tcp 1040 ------- 1 0.0 5.0 9 30
r 1.25208 0 2 tcp 1040 ------- 1 0.0 5.0 7 24
+ 1.25208 2 3 tcp 1040 ------- 1 0.0 5.0 7 24
- 1.25208 2 3 tcp 1040 ------- 1 0.0 5.0 7 24
r 1.25272 3 5 tcp 1040 ------- 1 0.0 5.0 6 17
+ 1.25272 5 3 ack 40 ------- 1 5.0 0.0 6 32
- 1.25272 5 3 ack 40 ------- 1 5.0 0.0 6 32
r 1.25472 5 3 ack 40 ------- 2 5.1 1.0 5 29
+ 1.25472 3 2 ack 40 ------- 2 5.1 1.0 5 29
- 1.25472 3 2 ack 40 ------- 2 5.1 1.0 5 29
r 1.25672 3 2 ack 40 ------- 1 5.0 0.0 5 26
+ 1.25672 2 0 ack 40 ------- 1 5.0 0.0 5 26
- 1.25672 2 0 ack 40 ------- 1 5.0 0.0 5 26
r 1.25872 2 1 ack 40 ------- 2 5.1 1.0 4 23
+ 1.25872 1 2 tcp 1040 ------- 2 1.0 5.1 9 33
+ 1.25872 1 2 tcp 1040 ------- 2 1.0 5.1 10 34
- 1.25872 1 2 tcp 1040 ------- 2 1.0 5.1 9 33
- 1.25872 0 2 tcp 1040 ------- 1 0.0 5.0 10 31
r 1.2604 1 2 tcp 1040 ------- 2 1.0 5.1 7 27
+ 1.2604 2 3 tcp 1040 ------- 2 1.0 5.1 7 27
r 1.2604 0 2 tcp 1040 ------- 1 0.0 5.0 8 25
+ 1.2604 2 3 tcp 1040 ------- 1 0.0 5.0 8 25
- 1.2604 2 3 tcp 1040 ------- 2 1.0 5.1 7 27
r 1.26104 3 5 tcp 1040 ------- 2 1.0 5.1 6 19
+ 1.26104 5 3 ack 40 ------- 2 5.1 1.0 6 35
- 1.26104 5 3 ack 40 ------- 2 5.1 1.0 6 35
r 1.26304 5 3 ack 40 ------- 1 5.0 0.0 6 32
+ 1.26304 3 2 ack 40 ------- 1 5.0 0.0 6 32
- 1.26304 3 2 ack 40 ------- 1 5.0 0.0 6 32
r 1.26504 3 2 ack 40 ------- 2 5.1 1.0 5 29
+ 1.26504 2 1 ack 40 ------- 2 5.1 1.0 5 29
- 1.26504 2 1 ack 40 ------- 2 5.1 1.0 5 29
r 1.26704 2 0 ack 40 ------- 1 5.0 0.0 5 26
+ 1.26704 0 2 tcp 1040 ------- 1 0.0 5.0 11 36
+ 1.26704 0 2 tcp 1040 ------- 1 0.0 5.0 12 37
- 1.26704 1 2 tcp 1040 ------- 2 1.0 5.1 10 34
- 1.26704 0 2 tcp 1040 ------- 1 0.0 5.0 11 36
r 1.26872 1 2 tcp 1040 ------- 2 1.0 5.1 8 28
+ 1.26872 2 3 tcp 1040 ------- 2 1.0 5.1 8 28
r 1.26872 0 2 tcp 1040 ------- 1 0.0 5.0 9 30
+ 1.26872 2 3 tcp 1040 ------- 1 0.0 5.0 9 30
- 1.26872 2 3 tcp 1040 ------- 1 0.0 5.0 8 25
r 1.2704 2 3 tcp 1040 ------- 1 0.0 5.0 7 24
+ 1.2704 3 5 tcp 1040 ------- 1 0.0 5.0 7 24
- 1.2704 3 5 tcp 1040 ------- 1 0.0 5.0 7 24
r 1.27136 5 3 ack 40 ------- 2 5.1 1.0 6 35
+ 1.27136 3 2 ack 40 ------- 2 5.1 1.0 6 35
- 1.27136 3 2 ack 40 ------- 2 5.1 1.0 6 35
r 1.27336 3 2 ack 40 ------- 1 5.0 0.0 6 32
+ 1.27336 2 0 ack 40 ------- 1 5.0 0.0 6 32
- 1.27336 2 0 ack 40 ------- 1 5.0 0.0 6 32
r 1.27536 2 1 ack 40 ------- 2 5.1 1.0 5 29
+ 1.27536 1 2 tcp 1040 ------- 2 1.0 5.1 11 38
+ 1.27536 1 2 tcp 1040 ------- 2 1.0 5.1 12 39
- 1.27536 1 2 tcp 1040 ------- 2 1.0 5.1 11 38
- 1.27536 0 2 tcp 1040 ------- 1 0.0 5.0 12 37
r 1.27704 1 2 tcp 1040 ------- 2 1.0 5.1 9 33
+ 1.27704 2 3 tcp 1040 ------- 2 1.0 5.1 9 33
r 1.27704 0 2 tcp 1040 ------- 1 0.0 5.0 10 31
+ 1.27704 2 3 tcp 1040 ------- 1 0.0 5.0 10 31
- 1.27704 2 3 tcp 1040 ------- 2 1.0 5.1 8 28
r 1.27872 2 3 tcp 1040 ------- 2 1.0 5.1 7 27
+ 1.27872 3 5 tcp 1040 ------- 2 1.0 5.1 7 27
- 1.27872 3 5 tcp 1040 ------- 2 1.0 5.1 7 27
r 1.28168 3 2 ack 40 ------- 2 5.1 1.0 6 35
+ 1.28168 2 1 ack 40 ------- 2 5.1 1.0 6 35
- 1.28168 2 1 ack 40 ------- 2 5.1 1.0 6 35
r 1.28368 2 0 ack 40 ------- 1 5.0 0.0 6 32
+ 1.28368 0 2 tcp 1040 ------- 1 0.0 5.0 13 40
+ 1.28368 0 2 tcp 1040 ------- 1 0.0 5.0 14 41
- 1.28368 1 2 tcp 1040 ------- 2 1.0 5.1 12 39
- 1.28368 0 2 tcp 1040 ------- 1 0.0 5.0 13 40
r 1.28536 1 2 tcp 1040 ------- 2 1.0 5.1 10 34
+ 1.28536 2 3 tcp 1040 ------- 2 1.0 5.1 10 34
r 1.28536 0 2 tcp 1040 ------- 1 0.0 5.0 11 36
+ 1.28536 2 3 tcp 1040 ------- 1 0.0 5.0 11 36
- 1.28536 2 3 tcp 1040 ------- 1 0.0 5.0 9 30
r 1.28704 2 3 tcp 1040 ------- 1 0.0 5.0 8 25
+ 1.28704 3 5 tcp 1040 ------- 1 0.0 5.0 8 25
- 1.28704 3 5 tcp 1040 ------- 1 0.0 5.0 8 25
r 1.28872 3 5 tcp 1040 ------- 1 0.0 5.0 7 24
+ 1.28872 5 3 ack 40 ------- 1 5.0 0.0 7 42
- 1.28872 5 3 ack 40 ------- 1 5.0 0.0 7 42
r 1.292 2 1 ack 40 ------- 2 5.1 1.0 6 35
+ 1.292 1 2 tcp 1040 ------- 2 1.0 5.1 13 43
+ 1.292 1 2 tcp 1040 ------- 2 1.0 5.1 14 44
- 1.292 1 2 tcp 1040 ------- 2 1.0 5.1 13 43
- 1.292 0 2 tcp 1040 ------- 1 0.0 5.0 14 41
r 1.29368 1 2 tcp 1040 ------- 2 1.0 5.1 11 38
+ 1.29368 2 3 tcp 1040 ------- 2 1.0 5.1 11 38
r 1.29368 0 2 tcp 1040 ------- 1 0.0 5.0 12 37
+ 1.29368 2 3 tcp 1040 ------- 1 0.0 5.0 12 37
- 1.29368 2 3 tcp 1040 ------- 2 1.0 5.1 9 33
r 1.29536 2 3 tcp 1040 ------- 2 1.0 5.1 8 28
+ 1.29536 3 5 tcp 1040 ------- 2 1.0 5.1 8 28
- 1.29536 3 5 tcp 1040 ------- 2 1.0 5.1 8 28
r 1.29704 3 5 tcp 1040 ------- 2 1.0 5.1 7 27
+ 1.29704 5 3 ack 40 ------- 2 5.1 1.0 7 45
- 1.29704 5 3 ack 40 ------- 2 5.1 1.0 7 45
r 1.29904 5 3 ack 40 ------- 1 5.0 0.0 7 42
+ 1.29904 3 2 ack 40 ------- 1 5.0 0.0 7 42
- 1.29904 3 2 ack 40 ------- 1 5.0 0.0 7 42
- 1.30032 1 2 tcp 1040 ------- 2 1.0 5.1 14 44
r 1.302 1 2 tcp 1040 ------- 2 1.0 5.1 12 39
+ 1.302 2 3 tcp 1040 ------- 2 1.0 5.1 12 39
r 1.302 0 2 tcp 1040 ------- 1 0.0 5.0 13 40
+ 1.302 2 3 tcp 1040 ------- 1 0.0 5.0 13 40
- 1.302 2 3 tcp 1040 ------- 1 0.0 5.0 10 31
r 1.30368 2 3 tcp 1040 ------- 1 0.0 5.0 9 30
+ 1.30368 3 5 tcp 1040 ------- 1 0.0 5.0 9 30
- 1.30368 3 5 tcp 1040 ------- 1 0.0 5.0 9 30
r 1.30536 3 5 tcp 1040 ------- 1 0.0 5.0 8 25
+ 1.30536 5 3 ack 40 ------- 1 5.0 0.0 8 46
- 1.30536 5 3 ack 40 ------- 1 5.0 0.0 8 46
r 1.30736 5 3 ack 40 ------- 2 5.1 1.0 7 45
+ 1.30736 3 2 ack 40 ------- 2 5.1 1.0 7 45
- 1.30736 3 2 ack 40 ------- 2 5.1 1.0 7 45
r 1.30936 3 2 ack 40 ------- 1 5.0 0.0 7 42
+ 1.30936 2 0 ack 40 ------- 1 5.0 0.0 7 42
- 1.30936 2 0 ack 40 ------- 1 5.0 0.0 7 42
r 1.31032 1 2 tcp 1040 ------- 2 1.0 5.1 13 43
+ 1.31032 2 3 tcp 1040 ------- 2 1.0 5.1 13 43
r 1.31032 0 2 tcp 1040 ------- 1 0.0 5.0 14 41
+ 1.31032 2 3 tcp 1040 ------- 1 0.0 5.0 14 41
- 1.31032 2 3 tcp 1040 ------- 2 1.0 5.1 10 34
r 1.312 2 3 tcp 1040 ------- 2 1.0 5.1 9 33
+ 1.312 3 5 tcp 1040 ------- 2 1.0 5.1 9 33
- 1.312 3 5 tcp 1040 ------- 2 1.0 5.1 9 33
r 1.31368 3 5 tcp 1040 ------- 2 1.0 5.1 8 28
+ 1.31368 5 3 ack 40 ------- 2 5.1 1.0 8 47
- 1.31368 5 3 ack 40 ------- 2 5.1 1.0 8 47
r 1.31568 5 3 ack 40 ------- 1 5.0 0.0 8 46
+ 1.31568 3 2 ack 40 ------- 1 5.0 0.0 8 46
- 1.31568 3 2 ack 40 ------- 1 5.0 0.0 8 46
r 1.31768 3 2 ack 40 ------- 2 5.1 1.0 7 45
+ 1.31768 2 1 ack 40 ------- 2 5.1 1.0 7 45
- 1.31768 2 1 ack 40 ------- 2 5.1 1.0 7 45
r 1.31864 1 2 tcp 1040 ------- 2 1.0 5.1 14 44
+ 1.31864 2 3 tcp 1040 ------- 2 1.0 5.1 14 44
- 1.31864 2 3 tcp 1040 ------- 1 0.0 5.0 11 36
r 1.31968 2 0 ack 40 ------- 1 5.0 0.0 7 42
+ 1.31968 0 2 tcp 1040 ------- 1 0.0 5.0 15 48
- 1.31968 0 2 tcp 1040 ------- 1 0.0 5.0 15 48
+ 1.31968 0 2 tcp 1040 ------- 1 0.0 5.0 16 49
r 1.32032 2 3 tcp 1040 ------- 1 0.0 5.0 10 31
+ 1.32032 3 5 tcp 1040 ------- 1 0.0 5.0 10 31
- 1.32032 3 5 tcp 1040 ------- 1 0.0 5.0 10 31
r 1.322 3 5 tcp 1040 ------- 1 0.0 5.0 9 30
+ 1.322 5 3 ack 40 ------- 1 5.0 0.0 9 50
- 1.322 5 3 ack 40 ------- 1 5.0 0.0 9 50
r 1.324 5 3 ack 40 ------- 2 5.1 1.0 8 47
+ 1.324 3 2 ack 40 ------- 2 5.1 1.0 8 47
- 1.324 3 2 ack 40 ------- 2 5.1 1.0 8 47
r 1.326 3 2 ack 40 ------- 1 5.0 0.0 8 46
+ 1.326 2 0 ack 40 ------- 1 5.0 0.0 8 46
- 1.326 2 0 ack 40 ------- 1 5.0 0.0 8 46
- 1.32696 2 3 tcp 1040 ------- 2 1.0 5.1 11 38
r 1.328 2 1 ack 40 ------- 2 5.1 1.0 7 45
+ 1.328 1 2 tcp 1040 ------- 2 1.0 5.1 15 51
- 1.328 1 2 tcp 1040 ------- 2 1.0 5.1 15 51
+ 1.328 1 2 tcp 1040 ------- 2 1.0 5.1 16 52
- 1.328 0 2 tcp 1040 ------- 1 0.0 5.0 16 49
r 1.32864 2 3 tcp 1040 ------- 2 1.0 5.1 10 34
+ 1.32864 3 5 tcp 1040 ------- 2 1.0 5.1 10 34
- 1.32864 3 5 tcp 1040 ------- 2 1.0 5.1 10 34
r 1.33032 3 5 tcp 1040 ------- 2 1.0 5.1 9 33
+ 1.33032 5 3 ack 40 ------- 2 5.1 1.0 9 53
- 1.33032 5 3 ack 40 ------- 2 5.1 1.0 9 53
r 1.33232 5 3 ack 40 ------- 1 5.0 0.0 9 50
+ 1.33232 3 2 ack 40 ------- 1 5.0 0.0 9 50
- 1.33232 3 2 ack 40 ------- 1 5.0 0.0 9 50
r 1.33432 3 2 ack 40 ------- 2 5.1 1.0 8 47
+ 1.33432 2 1 ack 40 ------- 2 5.1 1.0 8 47
- 1.33432 2 1 ack 40 ------- 2 5.1 1.0 8 47
- 1.33528 2 3 tcp 1040 ------- 1 0.0 5.0 12 37
r 1.33632 2 0 ack 40 ------- 1 5.0 0.0 8 46
+ 1.33632 0 2 tcp 1040 ------- 1 0.0 5.0 17 54
+ 1.33632 0 2 tcp 1040 ------- 1 0.0 5.0 18 55
- 1.33632 1 2 tcp 1040 ------- 2 1.0 5.1 16 52
- 1.33632 0 2 tcp 1040 ------- 1 0.0 5.0 17 54
r 1.33696 2 3 tcp 1040 ------- 1 0.0 5.0 11 36
+ 1.33696 3 5 tcp 1040 ------- 1 0.0 5.0 11 36
- 1.33696 3 5 tcp 1040 ------- 1 0.0 5.0 11 36
r 1.338 0 2 tcp 1040 ------- 1 0.0 5.0 15 48
+ 1.338 2 3 tcp 1040 ------- 1 0.0 5.0 15 48
r 1.33864 3 5 tcp 1040 ------- 1 0.0 5.0 10 31
+ 1.33864 5 3 ack 40 ------- 1 5.0 0.0 10 56
- 1.33864 5 3 ack 40 ------- 1 5.0 0.0 10 56
r 1.34064 5 3 ack 40 ------- 2 5.1 1.0 9 53
+ 1.34064 3 2 ack 40 ------- 2 5.1 1.0 9 53
- 1.34064 3 2 ack 40 ------- 2 5.1 1.0 9 53
r 1.34264 3 2 ack 40 ------- 1 5.0 0.0 9 50
+ 1.34264 2 0 ack 40 ------- 1 5.0 0.0 9 50
- 1.34264 2 0 ack 40 ------- 1 5.0 0.0 9 50
- 1.3436 2 3 tcp 1040 ------- 2 1.0 5.1 12 39
r 1.34464 2 1 ack 40 ------- 2 5.1 1.0 8 47
+ 1.34464 1 2 tcp 1040 ------- 2 1.0 5.1 17 57
+ 1.34464 1 2 tcp 1040 ------- 2 1.0 5.1 18 58
- 1.34464 1 2 tcp 1040 ------- 2 1.0 5.1 17 57
- 1.34464 0 2 tcp 1040 ------- 1 0.0 5.0 18 55
r 1.34528 2 3 tcp 1040 ------- 2 1.0 5.1 11 38
+ 1.34528 3 5 tcp 1040 ------- 2 1.0 5.1 11 38
- 1.34528 3 5 tcp 1040 ------- 2 1.0 5.1 11 38
r 1.34632 1 2 tcp 1040 ------- 2 1.0 5.1 15 51
+ 1.34632 2 3 tcp 1040 ------- 2 1.0 5.1 15 51
r 1.34632 0 2 tcp 1040 ------- 1 0.0 5.0 16 49
+ 1.34632 2 3 tcp 1040 ------- 1 0.0 5.0 16 49
r 1.34696 3 5 tcp 1040 ------- 2 1.0 5.1 10 34
+ 1.34696 5 3 ack 40 ------- 2 5.1 1.0 10 59
- 1.34696 5 3 ack 40 ------- 2 5.1 1.0 10 59
r 1.34896 5 3 ack 40 ------- 1 5.0 0.0 10 56
+ 1.34896 3 2 ack 40 ------- 1 5.0 0.0 10 56
- 1.34896 3 2 ack 40 ------- 1 5.0 0.0 10 56
r 1.35096 3 2 ack 40 ------- 2 5.1 1.0 9 53
+ 1.35096 2 1 ack 40 ------- 2 5.1 1.0 9 53
- 1.35096 2 1 ack 40 ------- 2 5.1 1.0 9 53
- 1.35192 2 3 tcp 1040 ------- 1 0.0 5.0 13 40
r 1.35296 2 0 ack 40 ------- 1 5.0 0.0 9 50
+ 1.35296 0 2 tcp 1040 ------- 1 0.0 5.0 19 60
+ 1.35296 0 2 tcp 1040 ------- 1 0.0 5.0 20 61
- 1.35296 1 2 tcp 1040 ------- 2 1.0 5.1 18 58
- 1.35296 0 2 tcp 1040 ------- 1 0.0 5.0 19 60
r 1.3536 2 3 tcp 1040 ------- 1 0.0 5.0 12 37
+ 1.3536 3 5 tcp 1040 ------- 1 0.0 5.0 12 37
- 1.3536 3 5 tcp 1040 ------- 1 0.0 5.0 12 37
r 1.35464 1 2 tcp 1040 ------- 2 1.0 5.1 16 52
+ 1.35464 2 3 tcp 1040 ------- 2 1.0 5.1 16 52
r 1.35464 0 2 tcp 1040 ------- 1 0.0 5.0 17 54
+ 1.35464 2 3 tcp 1040 ------- 1 0.0 5.0 17 54
r 1.35528 3 5 tcp 1040 ------- 1 0.0 5.0 11 36
+ 1.35528 5 3 ack 40 ------- 1 5.0 0.0 11 62
- 1.35528 5 3 ack 40 ------- 1 5.0 0.0 11 62
r 1.35728 5 3 ack 40 ------- 2 5.1 1.0 10 59
+ 1.35728 3 2 ack 40 ------- 2 5.1 1.0 10 59
- 1.35728 3 2 ack 40 ------- 2 5.1 1.0 10 59
r 1.35928 3 2 ack 40 ------- 1 5.0 0.0 10 56
+ 1.35928 2 0 ack 40 ------- 1 5.0 0.0 10 56
- 1.35928 2 0 ack 40 ------- 1 5.0 0.0 10 56
- 1.36024 2 3 tcp 1040 ------- 2 1.0 5.1 13 43
r 1.36128 2 1 ack 40 ------- 2 5.1 1.0 9 53
+ 1.36128 1 2 tcp 1040 ------- 2 1.0 5.1 19 63
+ 1.36128 1 2 tcp 1040 ------- 2 1.0 5.1 20 64
- 1.36128 1 2 tcp 1040 ------- 2 1.0 5.1 19 63
- 1.36128 0 2 tcp 1040 ------- 1 0.0 5.0 20 61
r 1.36192 2 3 tcp 1040 ------- 2 1.0 5.1 12 39
+ 1.36192 3 5 tcp 1040 ------- 2 1.0 5.1 12 39
- 1.36192 3 5 tcp 1040 ------- 2 1.0 5.1 12 39
r 1.36296 1 2 tcp 1040 ------- 2 1.0 5.1 17 57
+ 1.36296 2 3 tcp 1040 ------- 2 1.0 5.1 17 57
r 1.36296 0 2 tcp 1040 ------- 1 0.0 5.0 18 55
+ 1.36296 2 3 tcp 1040 ------- 1 0.0 5.0 18 55
r 1.3636 3 5 tcp 1040 ------- 2 1.0 5.1 11 38
+ 1.3636 5 3 ack 40 ------- 2 5.1 1.0 11 65
- 1.3636 5 3 ack 40 ------- 2 5.1 1.0 11 65
r 1.3656 5 3 ack 40 ------- 1 5.0 0.0 11 62
+ 1.3656 3 2 ack 40 ------- 1 5.0 0.0 11 62
- 1.3656 3 2 ack 40 ------- 1 5.0 0.0 11 62
r 1.3676 3 2 ack 40 ------- 2 5.1 1.0 10 59
+ 1.3676 2 1 ack 40 ------- 2 5.1 1.0 10 59
- 1.3676 2 1 ack 40 ------- 2 5.1 1.0 10 59
- 1.36856 2 3 tcp 1040 ------- 1 0.0 5.0 14 41
r 1.3696 2 0 ack 40 ------- 1 5.0 0.0 10 56
+ 1.3696 0 2 tcp 1040 ------- 1 0.0 5.0 21 66
+ 1.3696 0 2 tcp 1040 ------- 1 0.0 5.0 22 67
- 1.3696 1 2 tcp 1040 ------- 2 1.0 5.1 20 64
- 1.3696 0 2 tcp 1040 ------- 1 0.0 5.0 21 66
r 1.37024 2 3 tcp 1040 ------- 1 0.0 5.0 13 40
+ 1.37024 3 5 tcp 1040 ------- 1 0.0 5.0 13 40
- 1.37024 3 5 tcp 1040 ------- 1 0.0 5.0 13 40
r 1.37128 1 2 tcp 1040 ------- 2 1.0 5.1 18 58
+ 1.37128 2 3 tcp 1040 ------- 2 1.0 5.1 18 58
r 1.37128 0 2 tcp 1040 ------- 1 0.0 5.0 19 60
+ 1.37128 2 3 tcp 1040 ------- 1 0.0 5.0 19 60
r 1.37192 3 5 tcp 1040 ------- 1 0.0 5.0 12 37
+ 1.37192 5 3 ack 40 ------- 1 5.0 0.0 12 68
- 1.37192 5 3 ack 40 ------- 1 5.0 0.0 12 68
r 1.37392 5 3 ack 40 ------- 2 5.1 1.0 11 65
+ 1.37392 3 2 ack 40 ------- 2 5.1 1.0 11 65
- 1.37392 3 2 ack 40 ------- 2 5.1 1.0 11 65
r 1.37592 3 2 ack 40 ------- 1 5.0 0.0 11 62
+ 1.37592 2 0 ack 40 ------- 1 5.0 0.0 11 62
- 1.37592 2 0 ack 40 ------- 1 5.0 0.0 11 62
- 1.37688 2 3 tcp 1040 ------- 2 1.0 5.1 14 44
r 1.37792 2 1 ack 40 ------- 2 5.1 1.0 10 59
+ 1.37792 1 2 tcp 1040 ------- 2 1.0 5.1 21 69
+ 1.37792 1 2 tcp 1040 ------- 2 1.0 5.1 22 70
- 1.37792 1 2 tcp 1040 ------- 2 1.0 5.1 21 69
- 1.37792 0 2 tcp 1040 ------- 1 0.0 5.0 22 67
r 1.37856 2 3 tcp 1040 ------- 2 1.0 5.1 13 43
+ 1.37856 3 5 tcp 1040 ------- 2 1.0 5.1 13 43
- 1.37856 3 5 tcp 1040 ------- 2 1.0 5.1 13 43
r 1.3796 1 2 tcp 1040 ------- 2 1.0 5.1 19 63
+ 1.3796 2 3 tcp 1040 ------- 2 1.0 5.1 19 63
r 1.3796 0 2 tcp 1040 ------- 1 0.0 5.0 20 61
+ 1.3796 2 3 tcp 1040 ------- 1 0.0 5.0 20 61
r 1.38024 3 5 tcp 1040 ------- 2 1.0 5.1 12 39
+ 1.38024 5 3 ack 40 ------- 2 5.1 1.0 12 71
- 1.38024 5 3 ack 40 ------- 2 5.1 1.0 12 71
r 1.38224 5 3 ack 40 ------- 1 5.0 0.0 12 68
+ 1.38224 3 2 ack 40 ------- 1 5.0 0.0 12 68
- 1.38224 3 2 ack 40 ------- 1 5.0 0.0 12 68
r 1.38424 3 2 ack 40 ------- 2 5.1 1.0 11 65
+ 1.38424 2 1 ack 40 ------- 2 5.1 1.0 11 65
- 1.38424 2 1 ack 40 ------- 2 5.1 1.0 11 65
- 1.3852 2 3 tcp 1040 ------- 1 0.0 5.0 15 48
r 1.38624 2 0 ack 40 ------- 1 5.0 0.0 11 62
+ 1.38624 0 2 tcp 1040 ------- 1 0.0 5.0 23 72
+ 1.38624 0 2 tcp 1040 ------- 1 0.0 5.0 24 73
- 1.38624 1 2 tcp 1040 ------- 2 1.0 5.1 22 70
- 1.38624 0 2 tcp 1040 ------- 1 0.0 5.0 23 72
r 1.38688 2 3 tcp 1040 ------- 1 0.0 5.0 14 41
+ 1.38688 3 5 tcp 1040 ------- 1 0.0 5.0 14 41
- 1.38688 3 5 tcp 1040 ------- 1 0.0 5.0 14 41
r 1.38792 1 2 tcp 1040 ------- 2 1.0 5.1 20 64
+ 1.38792 2 3 tcp 1040 ------- 2 1.0 5.1 20 64
r 1.38792 0 2 tcp 1040 ------- 1 0.0 5.0 21 66
+ 1.38792 2 3 tcp 1040 ------- 1 0.0 5.0 21 66
r 1.38856 3 5 tcp 1040 ------- 1 0.0 5.0 13 40
+ 1.38856 5 3 ack 40 ------- 1 5.0 0.0 13 74
- 1.38856 5 3 ack 40 ------- 1 5.0 0.0 13 74
r 1.39056 5 3 ack 40 ------- 2 5.1 1.0 12 71
+ 1.39056 3 2 ack 40 ------- 2 5.1 1.0 12 71
- 1.39056 3 2 ack 40 ------- 2 5.1 1.0 12 71
r 1.39256 3 2 ack 40 ------- 1 5.0 0.0 12 68
+ 1.39256 2 0 ack 40 ------- 1 5.0 0.0 12 68
- 1.39256 2 0 ack 40 ------- 1 5.0 0.0 12 68
- 1.39352 2 3 tcp 1040 ------- 2 1.0 5.1 15 51
r 1.39456 2 1 ack 40 ------- 2 5.1 1.0 11 65
+ 1.39456 1 2 tcp 1040 ------- 2 1.0 5.1 23 75
+ 1.39456 1 2 tcp 1040 ------- 2 1.0 5.1 24 76
- 1.39456 1 2 tcp 1040 ------- 2 1.0 5.1 23 75
- 1.39456 0 2 tcp 1040 ------- 1 0.0 5.0 24 73
r 1.3952 2 3 tcp 1040 ------- 2 1.0 5.1 14 44
+ 1.3952 3 5 tcp 1040 ------- 2 1.0 5.1 14 44
- 1.3952 3 5 tcp 1040 ------- 2 1.0 5.1 14 44
r 1.39624 1 2 tcp 1040 ------- 2 1.0 5.1 21 69
+ 1.39624 2 3 tcp 1040 ------- 2 1.0 5.1 21 69
r 1.39624 0 2 tcp 1040 ------- 1 0.0 5.0 22 67
+ 1.39624 2 3 tcp 1040 ------- 1 0.0 5.0 22 67
r 1.39688 3 5 tcp 1040 ------- 2 1.0 5.1 13 43
+ 1.39688 5 3 ack 40 ------- 2 5.1 1.0 13 77
- 1.39688 5 3 ack 40 ------- 2 5.1 1.0 13 77
r 1.39888 5 3 ack 40 ------- 1 5.0 0.0 13 74
+ 1.39888 3 2 ack 40 ------- 1 5.0 0.0 13 74
- 1.39888 3 2 ack 40 ------- 1 5.0 0.0 13 74
r 1.40088 3 2 ack 40 ------- 2 5.1 1.0 12 71
+ 1.40088 2 1 ack 40 ------- 2 5.1 1.0 12 71
- 1.40088 2 1 ack 40 ------- 2 5.1 1.0 12 71
- 1.40184 2 3 tcp 1040 ------- 1 0.0 5.0 16 49
r 1.40288 2 0 ack 40 ------- 1 5.0 0.0 12 68
+ 1.40288 0 2 tcp 1040 ------- 1 0.0 5.0 25 78
+ 1.40288 0 2 tcp 1040 ------- 1 0.0 5.0 26 79
- 1.40288 1 2 tcp 1040 ------- 2 1.0 5.1 24 76
- 1.40288 0 2 tcp 1040 ------- 1 0.0 5.0 25 78
r 1.40352 2 3 tcp 1040 ------- 1 0.0 5.0 15 48
+ 1.40352 3 5 tcp 1040 ------- 1 0.0 5.0 15 48
- 1.40352 3 5 tcp 1040 ------- 1 0.0 5.0 15 48
r 1.40456 1 2 tcp 1040 ------- 2 1.0 5.1 22 70
+ 1.40456 2 3 tcp 1040 ------- 2 1.0 5.1 22 70
r 1.40456 0 2 tcp 1040 ------- 1 0.0 5.0 23 72
+ 1.40456 2 3 tcp 1040 ------- 1 0.0 5.0 23 72
r 1.4052 3 5 tcp 1040 ------- 1 0.0 5.0 14 41
+ 1.4052 5 3 ack 40 ------- 1 5.0 0.0 14 80
- 1.4052 5 3 ack 40 ------- 1 5.0 0.0 14 80
r 1.4072 5 3 ack 40 ------- 2 5.1 1.0 13 77
+ 1.4072 3 2 ack 40 ------- 2 5.1 1.0 13 77
- 1.4072 3 2 ack 40 ------- 2 5.1 1.0 13 77
r 1.4092 3 2 ack 40 ------- 1 5.0 0.0 13 74
+ 1.4092 2 0 ack 40 ------- 1 5.0 0.0 13 74
- 1.4092 2 0 ack 40 ------- 1 5.0 0.0 13 74
- 1.41016 2 3 tcp 1040 ------- 2 1.0 5.1 16 52
r 1.4112 2 1 ack 40 ------- 2 5.1 1.0 12 71
+ 1.4112 1 2 tcp 1040 ------- 2 1.0 5.1 25 81
+ 1.4112 1 2 tcp 1040 ------- 2 1.0 5.1 26 82
- 1.4112 1 2 tcp 1040 ------- 2 1.0 5.1 25 81
- 1.4112 0 2 tcp 1040 ------- 1 0.0 5.0 26 79
r 1.41184 2 3 tcp 1040 ------- 2 1.0 5.1 15 51
+ 1.41184 3 5 tcp 1040 ------- 2 1.0 5.1 15 51
- 1.41184 3 5 tcp 1040 ------- 2 1.0 5.1 15 51
r 1.41288 1 2 tcp 1040 ------- 2 1.0 5.1 23 75
+ 1.41288 2 3 tcp 1040 ------- 2 1.0 5.1 23 75
r 1.41288 0 2 tcp 1040 ------- 1 0.0 5.0 24 73
+ 1.41288 2 3 tcp 1040 ------- 1 0.0 5.0 24 73
r 1.41352 3 5 tcp 1040 ------- 2 1.0 5.1 14 44
+ 1.41352 5 3 ack 40 ------- 2 5.1 1.0 14 83
- 1.41352 5 3 ack 40 ------- 2 5.1 1.0 14 83
r 1.41552 5 3 ack 40 ------- 1 5.0 0.0 14 80
+ 1.41552 3 2 ack 40 ------- 1 5.0 0.0 14 80
- 1.41552 3 2 ack 40 ------- 1 5.0 0.0 14 80
r 1.41752 3 2 ack 40 ------- 2 5.1 1.0 13 77
+ 1.41752 2 1 ack 40 ------- 2 5.1 1.0 13 77
- 1.41752 2 1 ack 40 ------- 2 5.1 1.0 13 77
- 1.41848 2 3 tcp 1040 ------- 1 0.0 5.0 17 54
r 1.41952 2 0 ack 40 ------- 1 5.0 0.0 13 74
+ 1.41952 0 2 tcp 1040 ------- 1 0.0 5.0 27 84
+ 1.41952 0 2 tcp 1040 ------- 1 0.0 5.0 28 85
- 1.41952 1 2 tcp 1040 ------- 2 1.0 5.1 26 82
- 1.41952 0 2 tcp 1040 ------- 1 0.0 5.0 27 84
r 1.42016 2 3 tcp 1040 ------- 1 0.0 5.0 16 49
+ 1.42016 3 5 tcp 1040 ------- 1 0.0 5.0 16 49
- 1.42016 3 5 tcp 1040 ------- 1 0.0 5.0 16 49
r 1.4212 1 2 tcp 1040 ------- 2 1.0 5.1 24 76
+ 1.4212 2 3 tcp 1040 ------- 2 1.0 5.1 24 76
r 1.4212 0 2 tcp 1040 ------- 1 0.0 5.0 25 78
+ 1.4212 2 3 tcp 1040 ------- 1 0.0 5.0 25 78
r 1.42184 3 5 tcp 1040 ------- 1 0.0 5.0 15 48
+ 1.42184 5 3 ack 40 ------- 1 5.0 0.0 15 86
- 1.42184 5 3 ack 40 ------- 1 5.0 0.0 15 86
r 1.42384 5 3 ack 40 ------- 2 5.1 1.0 14 83
+ 1.42384 3 2 ack 40 ------- 2 5.1 1.0 14 83
- 1.42384 3 2 ack 40 ------- 2 5.1 1.0 14 83
r 1.42584 3 2 ack 40 ------- 1 5.0 0.0 14 80
+ 1.42584 2 0 ack 40 ------- 1 5.0 0.0 14 80
- 1.42584 2 0 ack 40 ------- 1 5.0 0.0 14 80
- 1.4268 2 3 tcp 1040 ------- 2 1.0 5.1 17 57
r 1.42784 2 1 ack 40 ------- 2 5.1 1.0 13 77
+ 1.42784 1 2 tcp 1040 ------- 2 1.0 5.1 27 87
+ 1.42784 1 2 tcp 1040 ------- 2 1.0 5.1 28 88
- 1.42784 1 2 tcp 1040 ------- 2 1.0 5.1 27 87
- 1.42784 0 2 tcp 1040 ------- 1 0.0 5.0 28 85
r 1.42848 2 3 tcp 1040 ------- 2 1.0 5.1 16 52
+ 1.42848 3 5 tcp 1040 ------- 2 1.0 5.1 16 52
- 1.42848 3 5 tcp 1040 ------- 2 1.0 5.1 16 52
r 1.42952 1 2 tcp 1040 ------- 2 1.0 5.1 25 81
+ 1.42952 2 3 tcp 1040 ------- 2 1.0 5.1 25 81
r 1.42952 0 2 tcp 1040 ------- 1 0.0 5.0 26 79
+ 1.42952 2 3 tcp 1040 ------- 1 0.0 5.0 26 79
r 1.43016 3 5 tcp 1040 ------- 2 1.0 5.1 15 51
+ 1.43016 5 3 ack 40 ------- 2 5.1 1.0 15 89
- 1.43016 5 3 ack 40 ------- 2 5.1 1.0 15 89
r 1.43216 5 3 ack 40 ------- 1 5.0 0.0 15 86
+ 1.43216 3 2 ack 40 ------- 1 5.0 0.0 15 86
- 1.43216 3 2 ack 40 ------- 1 5.0 0.0 15 86
r 1.43416 3 2 ack 40 ------- 2 5.1 1.0 14 83