+ 0.5 0 4 tcp 40 ------- 1 0.0 6.0 0 0
- 0.5 0 4 tcp 40 ------- 1 0.0 6.0 0 0
+ 0.5 1 4 tcp 40 ------- 2 1.0 7.0 0 1
- 0.5 1 4 tcp 40 ------- 2 1.0 7.0 0 1
r 0.51032 0 4 tcp 40 ------- 1 0.0 6.0 0 0
+ 0.51032 4 5 tcp 40 ------- 1 0.0 6.0 0 0
- 0.51032 4 5 tcp 40 ------- 1 0.0 6.0 0 0
r 0.51032 1 4 tcp 40 ------- 2 1.0 7.0 0 1
+ 0.51032 4 5 tcp 40 ------- 2 1.0 7.0 0 1
- 0.51064 4 5 tcp 40 ------- 2 1.0 7.0 0 1
r 0.52064 4 5 tcp 40 ------- 1 0.0 6.0 0 0
+ 0.52064 5 6 tcp 40 ------- 1 0.0 6.0 0 0
- 0.52064 5 6 tcp 40 ------- 1 0.0 6.0 0 0
r 0.52096 4 5 tcp 40 ------- 2 1.0 7.0 0 1
+ 0.52096 5 7 tcp 40 ------- 2 1.0 7.0 0 1
- 0.52096 5 7 tcp 40 ------- 2 1.0 7.0 0 1
r 0.53096 5 6 tcp 40 ------- 1 0.0 6.0 0 0
+ 0.53096 6 5 ack 40 ------- 1 6.0 0.0 0 2
- 0.53096 6 5 ack 40 ------- 1 6.0 0.0 0 2
r 0.53128 5 7 tcp 40 ------- 2 1.0 7.0 0 1
+ 0.53128 7 5 ack 40 ------- 2 7.0 1.0 0 3
- 0.53128 7 5 ack 40 ------- 2 7.0 1.0 0 3
r 0.54128 6 5 ack 40 ------- 1 6.0 0.0 0 2
+ 0.54128 5 4 ack 40 ------- 1 6.0 0.0 0 2
- 0.54128 5 4 ack 40 ------- 1 6.0 0.0 0 2
r 0.5416 7 5 ack 40 ------- 2 7.0 1.0 0 3
+ 0.5416 5 4 ack 40 ------- 2 7.0 1.0 0 3
- 0.5416 5 4 ack 40 ------- 2 7.0 1.0 0 3
r 0.5516 5 4 ack 40 ------- 1 6.0 0.0 0 2
+ 0.5516 4 0 ack 40 ------- 1 6.0 0.0 0 2
- 0.5516 4 0 ack 40 ------- 1 6.0 0.0 0 2
r 0.55192 5 4 ack 40 ------- 2 7.0 1.0 0 3
+ 0.55192 4 1 ack 40 ------- 2 7.0 1.0 0 3
- 0.55192 4 1 ack 40 ------- 2 7.0 1.0 0 3
r 0.56192 4 0 ack 40 ------- 1 6.0 0.0 0 2
+ 0.56192 0 4 tcp 1040 ------- 1 0.0 6.0 1 4
- 0.56192 0 4 tcp 1040 ------- 1 0.0 6.0 1 4
+ 0.56192 0 4 tcp 1040 ------- 1 0.0 6.0 2 5
r 0.56224 4 1 ack 40 ------- 2 7.0 1.0 0 3
+ 0.56224 1 4 tcp 1040 ------- 2 1.0 7.0 1 6
- 0.56224 1 4 tcp 1040 ------- 2 1.0 7.0 1 6
+ 0.56224 1 4 tcp 1040 ------- 2 1.0 7.0 2 7
- 0.57024 0 4 tcp 1040 ------- 1 0.0 6.0 2 5
- 0.57056 1 4 tcp 1040 ------- 2 1.0 7.0 2 7
r 0.58024 0 4 tcp 1040 ------- 1 0.0 6.0 1 4
+ 0.58024 4 5 tcp 1040 ------- 1 0.0 6.0 1 4
- 0.58024 4 5 tcp 1040 ------- 1 0.0 6.0 1 4
r 0.58056 1 4 tcp 1040 ------- 2 1.0 7.0 1 6
+ 0.58056 4 5 tcp 1040 ------- 2 1.0 7.0 1 6
r 0.58856 0 4 tcp 1040 ------- 1 0.0 6.0 2 5
+ 0.58856 4 5 tcp 1040 ------- 1 0.0 6.0 2 5
- 0.58856 4 5 tcp 1040 ------- 2 1.0 7.0 1 6
r 0.58888 1 4 tcp 1040 ------- 2 1.0 7.0 2 7
+ 0.58888 4 5 tcp 1040 ------- 2 1.0 7.0 2 7
- 0.59688 4 5 tcp 1040 ------- 1 0.0 6.0 2 5
r 0.59856 4 5 tcp 1040 ------- 1 0.0 6.0 1 4
+ 0.59856 5 6 tcp 1040 ------- 1 0.0 6.0 1 4
- 0.59856 5 6 tcp 1040 ------- 1 0.0 6.0 1 4
- 0.6052 4 5 tcp 1040 ------- 2 1.0 7.0 2 7
r 0.60688 4 5 tcp 1040 ------- 2 1.0 7.0 1 6
+ 0.60688 5 7 tcp 1040 ------- 2 1.0 7.0 1 6
- 0.60688 5 7 tcp 1040 ------- 2 1.0 7.0 1 6
r 0.6152 4 5 tcp 1040 ------- 1 0.0 6.0 2 5
+ 0.6152 5 6 tcp 1040 ------- 1 0.0 6.0 2 5
- 0.6152 5 6 tcp 1040 ------- 1 0.0 6.0 2 5
r 0.61688 5 6 tcp 1040 ------- 1 0.0 6.0 1 4
+ 0.61688 6 5 ack 40 ------- 1 6.0 0.0 1 8
- 0.61688 6 5 ack 40 ------- 1 6.0 0.0 1 8
r 0.62352 4 5 tcp 1040 ------- 2 1.0 7.0 2 7
+ 0.62352 5 7 tcp 1040 ------- 2 1.0 7.0 2 7
- 0.62352 5 7 tcp 1040 ------- 2 1.0 7.0 2 7
r 0.6252 5 7 tcp 1040 ------- 2 1.0 7.0 1 6
+ 0.6252 7 5 ack 40 ------- 2 7.0 1.0 1 9
- 0.6252 7 5 ack 40 ------- 2 7.0 1.0 1 9
r 0.6272 6 5 ack 40 ------- 1 6.0 0.0 1 8
+ 0.6272 5 4 ack 40 ------- 1 6.0 0.0 1 8
- 0.6272 5 4 ack 40 ------- 1 6.0 0.0 1 8
r 0.63352 5 6 tcp 1040 ------- 1 0.0 6.0 2 5
+ 0.63352 6 5 ack 40 ------- 1 6.0 0.0 2 10
- 0.63352 6 5 ack 40 ------- 1 6.0 0.0 2 10
r 0.63552 7 5 ack 40 ------- 2 7.0 1.0 1 9
+ 0.63552 5 4 ack 40 ------- 2 7.0 1.0 1 9
- 0.63552 5 4 ack 40 ------- 2 7.0 1.0 1 9
r 0.63752 5 4 ack 40 ------- 1 6.0 0.0 1 8
+ 0.63752 4 0 ack 40 ------- 1 6.0 0.0 1 8
- 0.63752 4 0 ack 40 ------- 1 6.0 0.0 1 8
r 0.64184 5 7 tcp 1040 ------- 2 1.0 7.0 2 7
+ 0.64184 7 5 ack 40 ------- 2 7.0 1.0 2 11
- 0.64184 7 5 ack 40 ------- 2 7.0 1.0 2 11
r 0.64384 6 5 ack 40 ------- 1 6.0 0.0 2 10
+ 0.64384 5 4 ack 40 ------- 1 6.0 0.0 2 10
- 0.64384 5 4 ack 40 ------- 1 6.0 0.0 2 10
r 0.64584 5 4 ack 40 ------- 2 7.0 1.0 1 9
+ 0.64584 4 1 ack 40 ------- 2 7.0 1.0 1 9
- 0.64584 4 1 ack 40 ------- 2 7.0 1.0 1 9
r 0.64784 4 0 ack 40 ------- 1 6.0 0.0 1 8
+ 0.64784 0 4 tcp 1040 ------- 1 0.0 6.0 3 12
- 0.64784 0 4 tcp 1040 ------- 1 0.0 6.0 3 12
+ 0.64784 0 4 tcp 1040 ------- 1 0.0 6.0 4 13
r 0.65216 7 5 ack 40 ------- 2 7.0 1.0 2 11
+ 0.65216 5 4 ack 40 ------- 2 7.0 1.0 2 11
- 0.65216 5 4 ack 40 ------- 2 7.0 1.0 2 11
r 0.65416 5 4 ack 40 ------- 1 6.0 0.0 2 10
+ 0.65416 4 0 ack 40 ------- 1 6.0 0.0 2 10
- 0.65416 4 0 ack 40 ------- 1 6.0 0.0 2 10
r 0.65616 4 1 ack 40 ------- 2 7.0 1.0 1 9
+ 0.65616 1 4 tcp 1040 ------- 2 1.0 7.0 3 14
- 0.65616 1 4 tcp 1040 ------- 2 1.0 7.0 3 14
+ 0.65616 1 4 tcp 1040 ------- 2 1.0 7.0 4 15
- 0.65616 0 4 tcp 1040 ------- 1 0.0 6.0 4 13
r 0.66248 5 4 ack 40 ------- 2 7.0 1.0 2 11
+ 0.66248 4 1 ack 40 ------- 2 7.0 1.0 2 11
- 0.66248 4 1 ack 40 ------- 2 7.0 1.0 2 11
r 0.66448 4 0 ack 40 ------- 1 6.0 0.0 2 10
+ 0.66448 0 4 tcp 1040 ------- 1 0.0 6.0 5 16
+ 0.66448 0 4 tcp 1040 ------- 1 0.0 6.0 6 17
- 0.66448 1 4 tcp 1040 ------- 2 1.0 7.0 4 15
- 0.66448 0 4 tcp 1040 ------- 1 0.0 6.0 5 16
r 0.66616 0 4 tcp 1040 ------- 1 0.0 6.0 3 12
+ 0.66616 4 5 tcp 1040 ------- 1 0.0 6.0 3 12
- 0.66616 4 5 tcp 1040 ------- 1 0.0 6.0 3 12
r 0.6728 4 1 ack 40 ------- 2 7.0 1.0 2 11
+ 0.6728 1 4 tcp 1040 ------- 2 1.0 7.0 5 18
+ 0.6728 1 4 tcp 1040 ------- 2 1.0 7.0 6 19
- 0.6728 1 4 tcp 1040 ------- 2 1.0 7.0 5 18
- 0.6728 0 4 tcp 1040 ------- 1 0.0 6.0 6 17
r 0.67448 1 4 tcp 1040 ------- 2 1.0 7.0 3 14
+ 0.67448 4 5 tcp 1040 ------- 2 1.0 7.0 3 14
r 0.67448 0 4 tcp 1040 ------- 1 0.0 6.0 4 13
+ 0.67448 4 5 tcp 1040 ------- 1 0.0 6.0 4 13
- 0.67448 4 5 tcp 1040 ------- 2 1.0 7.0 3 14
- 0.68112 1 4 tcp 1040 ------- 2 1.0 7.0 6 19
r 0.6828 1 4 tcp 1040 ------- 2 1.0 7.0 4 15
+ 0.6828 4 5 tcp 1040 ------- 2 1.0 7.0 4 15
r 0.6828 0 4 tcp 1040 ------- 1 0.0 6.0 5 16
+ 0.6828 4 5 tcp 1040 ------- 1 0.0 6.0 5 16
- 0.6828 4 5 tcp 1040 ------- 1 0.0 6.0 4 13
r 0.68448 4 5 tcp 1040 ------- 1 0.0 6.0 3 12
+ 0.68448 5 6 tcp 1040 ------- 1 0.0 6.0 3 12
- 0.68448 5 6 tcp 1040 ------- 1 0.0 6.0 3 12
r 0.69112 1 4 tcp 1040 ------- 2 1.0 7.0 5 18
+ 0.69112 4 5 tcp 1040 ------- 2 1.0 7.0 5 18
r 0.69112 0 4 tcp 1040 ------- 1 0.0 6.0 6 17
+ 0.69112 4 5 tcp 1040 ------- 1 0.0 6.0 6 17
- 0.69112 4 5 tcp 1040 ------- 2 1.0 7.0 4 15
r 0.6928 4 5 tcp 1040 ------- 2 1.0 7.0 3 14
+ 0.6928 5 7 tcp 1040 ------- 2 1.0 7.0 3 14
- 0.6928 5 7 tcp 1040 ------- 2 1.0 7.0 3 14
r 0.69944 1 4 tcp 1040 ------- 2 1.0 7.0 6 19
+ 0.69944 4 5 tcp 1040 ------- 2 1.0 7.0 6 19
- 0.69944 4 5 tcp 1040 ------- 1 0.0 6.0 5 16
r 0.70112 4 5 tcp 1040 ------- 1 0.0 6.0 4 13
+ 0.70112 5 6 tcp 1040 ------- 1 0.0 6.0 4 13
- 0.70112 5 6 tcp 1040 ------- 1 0.0 6.0 4 13
r 0.7028 5 6 tcp 1040 ------- 1 0.0 6.0 3 12
+ 0.7028 6 5 ack 40 ------- 1 6.0 0.0 3 20
- 0.7028 6 5 ack 40 ------- 1 6.0 0.0 3 20
- 0.70776 4 5 tcp 1040 ------- 2 1.0 7.0 5 18
r 0.70944 4 5 tcp 1040 ------- 2 1.0 7.0 4 15
+ 0.70944 5 7 tcp 1040 ------- 2 1.0 7.0 4 15
- 0.70944 5 7 tcp 1040 ------- 2 1.0 7.0 4 15
r 0.71112 5 7 tcp 1040 ------- 2 1.0 7.0 3 14
+ 0.71112 7 5 ack 40 ------- 2 7.0 1.0 3 21
- 0.71112 7 5 ack 40 ------- 2 7.0 1.0 3 21
r 0.71312 6 5 ack 40 ------- 1 6.0 0.0 3 20
+ 0.71312 5 4 ack 40 ------- 1 6.0 0.0 3 20
- 0.71312 5 4 ack 40 ------- 1 6.0 0.0 3 20
- 0.71608 4 5 tcp 1040 ------- 1 0.0 6.0 6 17
r 0.71776 4 5 tcp 1040 ------- 1 0.0 6.0 5 16
+ 0.71776 5 6 tcp 1040 ------- 1 0.0 6.0 5 16
- 0.71776 5 6 tcp 1040 ------- 1 0.0 6.0 5 16
r 0.71944 5 6 tcp 1040 ------- 1 0.0 6.0 4 13
+ 0.71944 6 5 ack 40 ------- 1 6.0 0.0 4 22
- 0.71944 6 5 ack 40 ------- 1 6.0 0.0 4 22
r 0.72144 7 5 ack 40 ------- 2 7.0 1.0 3 21
+ 0.72144 5 4 ack 40 ------- 2 7.0 1.0 3 21
- 0.72144 5 4 ack 40 ------- 2 7.0 1.0 3 21
r 0.72344 5 4 ack 40 ------- 1 6.0 0.0 3 20
+ 0.72344 4 0 ack 40 ------- 1 6.0 0.0 3 20
- 0.72344 4 0 ack 40 ------- 1 6.0 0.0 3 20
- 0.7244 4 5 tcp 1040 ------- 2 1.0 7.0 6 19
r 0.72608 4 5 tcp 1040 ------- 2 1.0 7.0 5 18
+ 0.72608 5 7 tcp 1040 ------- 2 1.0 7.0 5 18
- 0.72608 5 7 tcp 1040 ------- 2 1.0 7.0 5 18
r 0.72776 5 7 tcp 1040 ------- 2 1.0 7.0 4 15
+ 0.72776 7 5 ack 40 ------- 2 7.0 1.0 4 23
- 0.72776 7 5 ack 40 ------- 2 7.0 1.0 4 23
r 0.72976 6 5 ack 40 ------- 1 6.0 0.0 4 22
+ 0.72976 5 4 ack 40 ------- 1 6.0 0.0 4 22
- 0.72976 5 4 ack 40 ------- 1 6.0 0.0 4 22
r 0.73176 5 4 ack 40 ------- 2 7.0 1.0 3 21
+ 0.73176 4 1 ack 40 ------- 2 7.0 1.0 3 21
- 0.73176 4 1 ack 40 ------- 2 7.0 1.0 3 21
r 0.73376 4 0 ack 40 ------- 1 6.0 0.0 3 20
+ 0.73376 0 4 tcp 1040 ------- 1 0.0 6.0 7 24
- 0.73376 0 4 tcp 1040 ------- 1 0.0 6.0 7 24
+ 0.73376 0 4 tcp 1040 ------- 1 0.0 6.0 8 25
r 0.7344 4 5 tcp 1040 ------- 1 0.0 6.0 6 17
+ 0.7344 5 6 tcp 1040 ------- 1 0.0 6.0 6 17
- 0.7344 5 6 tcp 1040 ------- 1 0.0 6.0 6 17
r 0.73608 5 6 tcp 1040 ------- 1 0.0 6.0 5 16
+ 0.73608 6 5 ack 40 ------- 1 6.0 0.0 5 26
- 0.73608 6 5 ack 40 ------- 1 6.0 0.0 5 26
r 0.73808 7 5 ack 40 ------- 2 7.0 1.0 4 23
+ 0.73808 5 4 ack 40 ------- 2 7.0 1.0 4 23
- 0.73808 5 4 ack 40 ------- 2 7.0 1.0 4 23
r 0.74008 5 4 ack 40 ------- 1 6.0 0.0 4 22
+ 0.74008 4 0 ack 40 ------- 1 6.0 0.0 4 22
- 0.74008 4 0 ack 40 ------- 1 6.0 0.0 4 22
r 0.74208 4 1 ack 40 ------- 2 7.0 1.0 3 21
+ 0.74208 1 4 tcp 1040 ------- 2 1.0 7.0 7 27
- 0.74208 1 4 tcp 1040 ------- 2 1.0 7.0 7 27
+ 0.74208 1 4 tcp 1040 ------- 2 1.0 7.0 8 28
- 0.74208 0 4 tcp 1040 ------- 1 0.0 6.0 8 25
r 0.74272 4 5 tcp 1040 ------- 2 1.0 7.0 6 19
+ 0.74272 5 7 tcp 1040 ------- 2 1.0 7.0 6 19
- 0.74272 5 7 tcp 1040 ------- 2 1.0 7.0 6 19
r 0.7444 5 7 tcp 1040 ------- 2 1.0 7.0 5 18
+ 0.7444 7 5 ack 40 ------- 2 7.0 1.0 5 29
- 0.7444 7 5 ack 40 ------- 2 7.0 1.0 5 29
r 0.7464 6 5 ack 40 ------- 1 6.0 0.0 5 26
+ 0.7464 5 4 ack 40 ------- 1 6.0 0.0 5 26
- 0.7464 5 4 ack 40 ------- 1 6.0 0.0 5 26
r 0.7484 5 4 ack 40 ------- 2 7.0 1.0 4 23
+ 0.7484 4 1 ack 40 ------- 2 7.0 1.0 4 23
- 0.7484 4 1 ack 40 ------- 2 7.0 1.0 4 23
r 0.7504 4 0 ack 40 ------- 1 6.0 0.0 4 22
+ 0.7504 0 4 tcp 1040 ------- 1 0.0 6.0 9 30
+ 0.7504 0 4 tcp 1040 ------- 1 0.0 6.0 10 31
- 0.7504 1 4 tcp 1040 ------- 2 1.0 7.0 8 28
- 0.7504 0 4 tcp 1040 ------- 1 0.0 6.0 9 30
r 0.75208 0 4 tcp 1040 ------- 1 0.0 6.0 7 24
+ 0.75208 4 5 tcp 1040 ------- 1 0.0 6.0 7 24
- 0.75208 4 5 tcp 1040 ------- 1 0.0 6.0 7 24
r 0.75272 5 6 tcp 1040 ------- 1 0.0 6.0 6 17
+ 0.75272 6 5 ack 40 ------- 1 6.0 0.0 6 32
- 0.75272 6 5 ack 40 ------- 1 6.0 0.0 6 32
r 0.75472 7 5 ack 40 ------- 2 7.0 1.0 5 29
+ 0.75472 5 4 ack 40 ------- 2 7.0 1.0 5 29
- 0.75472 5 4 ack 40 ------- 2 7.0 1.0 5 29
r 0.75672 5 4 ack 40 ------- 1 6.0 0.0 5 26
+ 0.75672 4 0 ack 40 ------- 1 6.0 0.0 5 26
- 0.75672 4 0 ack 40 ------- 1 6.0 0.0 5 26
r 0.75872 4 1 ack 40 ------- 2 7.0 1.0 4 23
+ 0.75872 1 4 tcp 1040 ------- 2 1.0 7.0 9 33
+ 0.75872 1 4 tcp 1040 ------- 2 1.0 7.0 10 34
- 0.75872 1 4 tcp 1040 ------- 2 1.0 7.0 9 33
- 0.75872 0 4 tcp 1040 ------- 1 0.0 6.0 10 31
r 0.7604 1 4 tcp 1040 ------- 2 1.0 7.0 7 27
+ 0.7604 4 5 tcp 1040 ------- 2 1.0 7.0 7 27
r 0.7604 0 4 tcp 1040 ------- 1 0.0 6.0 8 25
+ 0.7604 4 5 tcp 1040 ------- 1 0.0 6.0 8 25
- 0.7604 4 5 tcp 1040 ------- 2 1.0 7.0 7 27
r 0.76104 5 7 tcp 1040 ------- 2 1.0 7.0 6 19
+ 0.76104 7 5 ack 40 ------- 2 7.0 1.0 6 35
- 0.76104 7 5 ack 40 ------- 2 7.0 1.0 6 35
r 0.76304 6 5 ack 40 ------- 1 6.0 0.0 6 32
+ 0.76304 5 4 ack 40 ------- 1 6.0 0.0 6 32
- 0.76304 5 4 ack 40 ------- 1 6.0 0.0 6 32
r 0.76504 5 4 ack 40 ------- 2 7.0 1.0 5 29
+ 0.76504 4 1 ack 40 ------- 2 7.0 1.0 5 29
- 0.76504 4 1 ack 40 ------- 2 7.0 1.0 5 29
r 0.76704 4 0 ack 40 ------- 1 6.0 0.0 5 26
+ 0.76704 0 4 tcp 1040 ------- 1 0.0 6.0 11 36
+ 0.76704 0 4 tcp 1040 ------- 1 0.0 6.0 12 37
- 0.76704 1 4 tcp 1040 ------- 2 1.0 7.0 10 34
- 0.76704 0 4 tcp 1040 ------- 1 0.0 6.0 11 36
r 0.76872 1 4 tcp 1040 ------- 2 1.0 7.0 8 28
+ 0.76872 4 5 tcp 1040 ------- 2 1.0 7.0 8 28
r 0.76872 0 4 tcp 1040 ------- 1 0.0 6.0 9 30
+ 0.76872 4 5 tcp 1040 ------- 1 0.0 6.0 9 30
- 0.76872 4 5 tcp 1040 ------- 1 0.0 6.0 8 25
r 0.7704 4 5 tcp 1040 ------- 1 0.0 6.0 7 24
+ 0.7704 5 6 tcp 1040 ------- 1 0.0 6.0 7 24
- 0.7704 5 6 tcp 1040 ------- 1 0.0 6.0 7 24
r 0.77136 7 5 ack 40 ------- 2 7.0 1.0 6 35
+ 0.77136 5 4 ack 40 ------- 2 7.0 1.0 6 35
- 0.77136 5 4 ack 40 ------- 2 7.0 1.0 6 35
r 0.77336 5 4 ack 40 ------- 1 6.0 0.0 6 32
+ 0.77336 4 0 ack 40 ------- 1 6.0 0.0 6 32
- 0.77336 4 0 ack 40 ------- 1 6.0 0.0 6 32
r 0.77536 4 1 ack 40 ------- 2 7.0 1.0 5 29
+ 0.77536 1 4 tcp 1040 ------- 2 1.0 7.0 11 38
+ 0.77536 1 4 tcp 1040 ------- 2 1.0 7.0 12 39
- 0.77536 1 4 tcp 1040 ------- 2 1.0 7.0 11 38
- 0.77536 0 4 tcp 1040 ------- 1 0.0 6.0 12 37
r 0.77704 1 4 tcp 1040 ------- 2 1.0 7.0 9 33
+ 0.77704 4 5 tcp 1040 ------- 2 1.0 7.0 9 33
r 0.77704 0 4 tcp 1040 ------- 1 0.0 6.0 10 31
+ 0.77704 4 5 tcp 1040 ------- 1 0.0 6.0 10 31
- 0.77704 4 5 tcp 1040 ------- 2 1.0 7.0 8 28
r 0.77872 4 5 tcp 1040 ------- 2 1.0 7.0 7 27
+ 0.77872 5 7 tcp 1040 ------- 2 1.0 7.0 7 27
- 0.77872 5 7 tcp 1040 ------- 2 1.0 7.0 7 27
r 0.78168 5 4 ack 40 ------- 2 7.0 1.0 6 35
+ 0.78168 4 1 ack 40 ------- 2 7.0 1.0 6 35
- 0.78168 4 1 ack 40 ------- 2 7.0 1.0 6 35
r 0.78368 4 0 ack 40 ------- 1 6.0 0.0 6 32
+ 0.78368 0 4 tcp 1040 ------- 1 0.0 6.0 13 40
+ 0.78368 0 4 tcp 1040 ------- 1 0.0 6.0 14 41
- 0.78368 1 4 tcp 1040 ------- 2 1.0 7.0 12 39
- 0.78368 0 4 tcp 1040 ------- 1 0.0 6.0 13 40
r 0.78536 1 4 tcp 1040 ------- 2 1.0 7.0 10 34
+ 0.78536 4 5 tcp 1040 ------- 2 1.0 7.0 10 34
r 0.78536 0 4 tcp 1040 ------- 1 0.0 6.0 11 36
+ 0.78536 4 5 tcp 1040 ------- 1 0.0 6.0 11 36
- 0.78536 4 5 tcp 1040 ------- 1 0.0 6.0 9 30
r 0.78704 4 5 tcp 1040 ------- 1 0.0 6.0 8 25
+ 0.78704 5 6 tcp 1040 ------- 1 0.0 6.0 8 25
- 0.78704 5 6 tcp 1040 ------- 1 0.0 6.0 8 25
r 0.78872 5 6 tcp 1040 ------- 1 0.0 6.0 7 24
+ 0.78872 6 5 ack 40 ------- 1 6.0 0.0 7 42
- 0.78872 6 5 ack 40 ------- 1 6.0 0.0 7 42
r 0.792 4 1 ack 40 ------- 2 7.0 1.0 6 35
+ 0.792 1 4 tcp 1040 ------- 2 1.0 7.0 13 43
+ 0.792 1 4 tcp 1040 ------- 2 1.0 7.0 14 44
- 0.792 1 4 tcp 1040 ------- 2 1.0 7.0 13 43
- 0.792 0 4 tcp 1040 ------- 1 0.0 6.0 14 41
r 0.79368 1 4 tcp 1040 ------- 2 1.0 7.0 11 38
+ 0.79368 4 5 tcp 1040 ------- 2 1.0 7.0 11 38
r 0.79368 0 4 tcp 1040 ------- 1 0.0 6.0 12 37
+ 0.79368 4 5 tcp 1040 ------- 1 0.0 6.0 12 37
- 0.79368 4 5 tcp 1040 ------- 2 1.0 7.0 9 33
r 0.79536 4 5 tcp 1040 ------- 2 1.0 7.0 8 28
+ 0.79536 5 7 tcp 1040 ------- 2 1.0 7.0 8 28
- 0.79536 5 7 tcp 1040 ------- 2 1.0 7.0 8 28
r 0.79704 5 7 tcp 1040 ------- 2 1.0 7.0 7 27
+ 0.79704 7 5 ack 40 ------- 2 7.0 1.0 7 45
- 0.79704 7 5 ack 40 ------- 2 7.0 1.0 7 45
r 0.79904 6 5 ack 40 ------- 1 6.0 0.0 7 42
+ 0.79904 5 4 ack 40 ------- 1 6.0 0.0 7 42
- 0.79904 5 4 ack 40 ------- 1 6.0 0.0 7 42
- 0.80032 1 4 tcp 1040 ------- 2 1.0 7.0 14 44
r 0.802 1 4 tcp 1040 ------- 2 1.0 7.0 12 39
+ 0.802 4 5 tcp 1040 ------- 2 1.0 7.0 12 39
r 0.802 0 4 tcp 1040 ------- 1 0.0 6.0 13 40
+ 0.802 4 5 tcp 1040 ------- 1 0.0 6.0 13 40
- 0.802 4 5 tcp 1040 ------- 1 0.0 6.0 10 31
r 0.80368 4 5 tcp 1040 ------- 1 0.0 6.0 9 30
+ 0.80368 5 6 tcp 1040 ------- 1 0.0 6.0 9 30
- 0.80368 5 6 tcp 1040 ------- 1 0.0 6.0 9 30
r 0.80536 5 6 tcp 1040 ------- 1 0.0 6.0 8 25
+ 0.80536 6 5 ack 40 ------- 1 6.0 0.0 8 46
- 0.80536 6 5 ack 40 ------- 1 6.0 0.0 8 46
r 0.80736 7 5 ack 40 ------- 2 7.0 1.0 7 45
+ 0.80736 5 4 ack 40 ------- 2 7.0 1.0 7 45
- 0.80736 5 4 ack 40 ------- 2 7.0 1.0 7 45
r 0.80936 5 4 ack 40 ------- 1 6.0 0.0 7 42
+ 0.80936 4 0 ack 40 ------- 1 6.0 0.0 7 42
- 0.80936 4 0 ack 40 ------- 1 6.0 0.0 7 42
r 0.81032 1 4 tcp 1040 ------- 2 1.0 7.0 13 43
+ 0.81032 4 5 tcp 1040 ------- 2 1.0 7.0 13 43
r 0.81032 0 4 tcp 1040 ------- 1 0.0 6.0 14 41
+ 0.81032 4 5 tcp 1040 ------- 1 0.0 6.0 14 41
- 0.81032 4 5 tcp 1040 ------- 2 1.0 7.0 10 34
r 0.812 4 5 tcp 1040 ------- 2 1.0 7.0 9 33
+ 0.812 5 7 tcp 1040 ------- 2 1.0 7.0 9 33
- 0.812 5 7 tcp 1040 ------- 2 1.0 7.0 9 33
r 0.81368 5 7 tcp 1040 ------- 2 1.0 7.0 8 28
+ 0.81368 7 5 ack 40 ------- 2 7.0 1.0 8 47
- 0.81368 7 5 ack 40 ------- 2 7.0 1.0 8 47
r 0.81568 6 5 ack 40 ------- 1 6.0 0.0 8 46
+ 0.81568 5 4 ack 40 ------- 1 6.0 0.0 8 46
- 0.81568 5 4 ack 40 ------- 1 6.0 0.0 8 46
r 0.81768 5 4 ack 40 ------- 2 7.0 1.0 7 45
+ 0.81768 4 1 ack 40 ------- 2 7.0 1.0 7 45
- 0.81768 4 1 ack 40 ------- 2 7.0 1.0 7 45
r 0.81864 1 4 tcp 1040 ------- 2 1.0 7.0 14 44
+ 0.81864 4 5 tcp 1040 ------- 2 1.0 7.0 14 44
- 0.81864 4 5 tcp 1040 ------- 1 0.0 6.0 11 36
r 0.81968 4 0 ack 40 ------- 1 6.0 0.0 7 42
+ 0.81968 0 4 tcp 1040 ------- 1 0.0 6.0 15 48
- 0.81968 0 4 tcp 1040 ------- 1 0.0 6.0 15 48
+ 0.81968 0 4 tcp 1040 ------- 1 0.0 6.0 16 49
r 0.82032 4 5 tcp 1040 ------- 1 0.0 6.0 10 31
+ 0.82032 5 6 tcp 1040 ------- 1 0.0 6.0 10 31
- 0.82032 5 6 tcp 1040 ------- 1 0.0 6.0 10 31
r 0.822 5 6 tcp 1040 ------- 1 0.0 6.0 9 30
+ 0.822 6 5 ack 40 ------- 1 6.0 0.0 9 50
- 0.822 6 5 ack 40 ------- 1 6.0 0.0 9 50
r 0.824 7 5 ack 40 ------- 2 7.0 1.0 8 47
+ 0.824 5 4 ack 40 ------- 2 7.0 1.0 8 47
- 0.824 5 4 ack 40 ------- 2 7.0 1.0 8 47
r 0.826 5 4 ack 40 ------- 1 6.0 0.0 8 46
+ 0.826 4 0 ack 40 ------- 1 6.0 0.0 8 46
- 0.826 4 0 ack 40 ------- 1 6.0 0.0 8 46
- 0.82696 4 5 tcp 1040 ------- 2 1.0 7.0 11 38
r 0.828 4 1 ack 40 ------- 2 7.0 1.0 7 45
+ 0.828 1 4 tcp 1040 ------- 2 1.0 7.0 15 51
- 0.828 1 4 tcp 1040 ------- 2 1.0 7.0 15 51
+ 0.828 1 4 tcp 1040 ------- 2 1.0 7.0 16 52
- 0.828 0 4 tcp 1040 ------- 1 0.0 6.0 16 49
r 0.82864 4 5 tcp 1040 ------- 2 1.0 7.0 10 34
+ 0.82864 5 7 tcp 1040 ------- 2 1.0 7.0 10 34
- 0.82864 5 7 tcp 1040 ------- 2 1.0 7.0 10 34
r 0.83032 5 7 tcp 1040 ------- 2 1.0 7.0 9 33
+ 0.83032 7 5 ack 40 ------- 2 7.0 1.0 9 53
- 0.83032 7 5 ack 40 ------- 2 7.0 1.0 9 53
r 0.83232 6 5 ack 40 ------- 1 6.0 0.0 9 50
+ 0.83232 5 4 ack 40 ------- 1 6.0 0.0 9 50
- 0.83232 5 4 ack 40 ------- 1 6.0 0.0 9 50
r 0.83432 5 4 ack 40 ------- 2 7.0 1.0 8 47
+ 0.83432 4 1 ack 40 ------- 2 7.0 1.0 8 47
- 0.83432 4 1 ack 40 ------- 2 7.0 1.0 8 47
- 0.83528 4 5 tcp 1040 ------- 1 0.0 6.0 12 37
r 0.83632 4 0 ack 40 ------- 1 6.0 0.0 8 46
+ 0.83632 0 4 tcp 1040 ------- 1 0.0 6.0 17 54
+ 0.83632 0 4 tcp 1040 ------- 1 0.0 6.0 18 55
- 0.83632 1 4 tcp 1040 ------- 2 1.0 7.0 16 52
- 0.83632 0 4 tcp 1040 ------- 1 0.0 6.0 17 54
r 0.83696 4 5 tcp 1040 ------- 1 0.0 6.0 11 36
+ 0.83696 5 6 tcp 1040 ------- 1 0.0 6.0 11 36
- 0.83696 5 6 tcp 1040 ------- 1 0.0 6.0 11 36
r 0.838 0 4 tcp 1040 ------- 1 0.0 6.0 15 48
+ 0.838 4 5 tcp 1040 ------- 1 0.0 6.0 15 48
r 0.83864 5 6 tcp 1040 ------- 1 0.0 6.0 10 31
+ 0.83864 6 5 ack 40 ------- 1 6.0 0.0 10 56
- 0.83864 6 5 ack 40 ------- 1 6.0 0.0 10 56
r 0.84064 7 5 ack 40 ------- 2 7.0 1.0 9 53
+ 0.84064 5 4 ack 40 ------- 2 7.0 1.0 9 53
- 0.84064 5 4 ack 40 ------- 2 7.0 1.0 9 53
r 0.84264 5 4 ack 40 ------- 1 6.0 0.0 9 50
+ 0.84264 4 0 ack 40 ------- 1 6.0 0.0 9 50
- 0.84264 4 0 ack 40 ------- 1 6.0 0.0 9 50
- 0.8436 4 5 tcp 1040 ------- 2 1.0 7.0 12 39
r 0.84464 4 1 ack 40 ------- 2 7.0 1.0 8 47
+ 0.84464 1 4 tcp 1040 ------- 2 1.0 7.0 17 57
+ 0.84464 1 4 tcp 1040 ------- 2 1.0 7.0 18 58
- 0.84464 1 4 tcp 1040 ------- 2 1.0 7.0 17 57
- 0.84464 0 4 tcp 1040 ------- 1 0.0 6.0 18 55
r 0.84528 4 5 tcp 1040 ------- 2 1.0 7.0 11 38
+ 0.84528 5 7 tcp 1040 ------- 2 1.0 7.0 11 38
- 0.84528 5 7 tcp 1040 ------- 2 1.0 7.0 11 38
r 0.84632 1 4 tcp 1040 ------- 2 1.0 7.0 15 51
+ 0.84632 4 5 tcp 1040 ------- 2 1.0 7.0 15 51
r 0.84632 0 4 tcp 1040 ------- 1 0.0 6.0 16 49
+ 0.84632 4 5 tcp 1040 ------- 1 0.0 6.0 16 49
r 0.84696 5 7 tcp 1040 ------- 2 1.0 7.0 10 34
+ 0.84696 7 5 ack 40 ------- 2 7.0 1.0 10 59
- 0.84696 7 5 ack 40 ------- 2 7.0 1.0 10 59
r 0.84896 6 5 ack 40 ------- 1 6.0 0.0 10 56
+ 0.84896 5 4 ack 40 ------- 1 6.0 0.0 10 56
- 0.84896 5 4 ack 40 ------- 1 6.0 0.0 10 56
r 0.85096 5 4 ack 40 ------- 2 7.0 1.0 9 53
+ 0.85096 4 1 ack 40 ------- 2 7.0 1.0 9 53
- 0.85096 4 1 ack 40 ------- 2 7.0 1.0 9 53
- 0.85192 4 5 tcp 1040 ------- 1 0.0 6.0 13 40
r 0.85296 4 0 ack 40 ------- 1 6.0 0.0 9 50
+ 0.85296 0 4 tcp 1040 ------- 1 0.0 6.0 19 60
+ 0.85296 0 4 tcp 1040 ------- 1 0.0 6.0 20 61
- 0.85296 1 4 tcp 1040 ------- 2 1.0 7.0 18 58
- 0.85296 0 4 tcp 1040 ------- 1 0.0 6.0 19 60
r 0.8536 4 5 tcp 1040 ------- 1 0.0 6.0 12 37
+ 0.8536 5 6 tcp 1040 ------- 1 0.0 6.0 12 37
- 0.8536 5 6 tcp 1040 ------- 1 0.0 6.0 12 37
r 0.85464 1 4 tcp 1040 ------- 2 1.0 7.0 16 52
+ 0.85464 4 5 tcp 1040 ------- 2 1.0 7.0 16 52
r 0.85464 0 4 tcp 1040 ------- 1 0.0 6.0 17 54
+ 0.85464 4 5 tcp 1040 ------- 1 0.0 6.0 17 54
r 0.85528 5 6 tcp 1040 ------- 1 0.0 6.0 11 36
+ 0.85528 6 5 ack 40 ------- 1 6.0 0.0 11 62
- 0.85528 6 5 ack 40 ------- 1 6.0 0.0 11 62
r 0.85728 7 5 ack 40 ------- 2 7.0 1.0 10 59
+ 0.85728 5 4 ack 40 ------- 2 7.0 1.0 10 59
- 0.85728 5 4 ack 40 ------- 2 7.0 1.0 10 59
r 0.85928 5 4 ack 40 ------- 1 6.0 0.0 10 56
+ 0.85928 4 0 ack 40 ------- 1 6.0 0.0 10 56
- 0.85928 4 0 ack 40 ------- 1 6.0 0.0 10 56
- 0.86024 4 5 tcp 1040 ------- 2 1.0 7.0 13 43
r 0.86128 4 1 ack 40 ------- 2 7.0 1.0 9 53
+ 0.86128 1 4 tcp 1040 ------- 2 1.0 7.0 19 63
+ 0.86128 1 4 tcp 1040 ------- 2 1.0 7.0 20 64
- 0.86128 1 4 tcp 1040 ------- 2 1.0 7.0 19 63
- 0.86128 0 4 tcp 1040 ------- 1 0.0 6.0 20 61
r 0.86192 4 5 tcp 1040 ------- 2 1.0 7.0 12 39
+ 0.86192 5 7 tcp 1040 ------- 2 1.0 7.0 12 39
- 0.86192 5 7 tcp 1040 ------- 2 1.0 7.0 12 39
r 0.86296 1 4 tcp 1040 ------- 2 1.0 7.0 17 57
+ 0.86296 4 5 tcp 1040 ------- 2 1.0 7.0 17 57
r 0.86296 0 4 tcp 1040 ------- 1 0.0 6.0 18 55
+ 0.86296 4 5 tcp 1040 ------- 1 0.0 6.0 18 55
r 0.8636 5 7 tcp 1040 ------- 2 1.0 7.0 11 38
+ 0.8636 7 5 ack 40 ------- 2 7.0 1.0 11 65
- 0.8636 7 5 ack 40 ------- 2 7.0 1.0 11 65
r 0.8656 6 5 ack 40 ------- 1 6.0 0.0 11 62
+ 0.8656 5 4 ack 40 ------- 1 6.0 0.0 11 62
- 0.8656 5 4 ack 40 ------- 1 6.0 0.0 11 62
r 0.8676 5 4 ack 40 ------- 2 7.0 1.0 10 59
+ 0.8676 4 1 ack 40 ------- 2 7.0 1.0 10 59
- 0.8676 4 1 ack 40 ------- 2 7.0 1.0 10 59
- 0.86856 4 5 tcp 1040 ------- 1 0.0 6.0 14 41
r 0.8696 4 0 ack 40 ------- 1 6.0 0.0 10 56
+ 0.8696 0 4 tcp 1040 ------- 1 0.0 6.0 21 66
+ 0.8696 0 4 tcp 1040 ------- 1 0.0 6.0 22 67
- 0.8696 1 4 tcp 1040 ------- 2 1.0 7.0 20 64
- 0.8696 0 4 tcp 1040 ------- 1 0.0 6.0 21 66
r 0.87024 4 5 tcp 1040 ------- 1 0.0 6.0 13 40
+ 0.87024 5 6 tcp 1040 ------- 1 0.0 6.0 13 40
- 0.87024 5 6 tcp 1040 ------- 1 0.0 6.0 13 40
r 0.87128 1 4 tcp 1040 ------- 2 1.0 7.0 18 58
+ 0.87128 4 5 tcp 1040 ------- 2 1.0 7.0 18 58
r 0.87128 0 4 tcp 1040 ------- 1 0.0 6.0 19 60
+ 0.87128 4 5 tcp 1040 ------- 1 0.0 6.0 19 60
r 0.87192 5 6 tcp 1040 ------- 1 0.0 6.0 12 37
+ 0.87192 6 5 ack 40 ------- 1 6.0 0.0 12 68
- 0.87192 6 5 ack 40 ------- 1 6.0 0.0 12 68
r 0.87392 7 5 ack 40 ------- 2 7.0 1.0 11 65
+ 0.87392 5 4 ack 40 ------- 2 7.0 1.0 11 65
- 0.87392 5 4 ack 40 ------- 2 7.0 1.0 11 65
r 0.87592 5 4 ack 40 ------- 1 6.0 0.0 11 62
+ 0.87592 4 0 ack 40 ------- 1 6.0 0.0 11 62
- 0.87592 4 0 ack 40 ------- 1 6.0 0.0 11 62
- 0.87688 4 5 tcp 1040 ------- 2 1.0 7.0 14 44
r 0.87792 4 1 ack 40 ------- 2 7.0 1.0 10 59
+ 0.87792 1 4 tcp 1040 ------- 2 1.0 7.0 21 69
+ 0.87792 1 4 tcp 1040 ------- 2 1.0 7.0 22 70
- 0.87792 1 4 tcp 1040 ------- 2 1.0 7.0 21 69
- 0.87792 0 4 tcp 1040 ------- 1 0.0 6.0 22 67
r 0.87856 4 5 tcp 1040 ------- 2 1.0 7.0 13 43
+ 0.87856 5 7 tcp 1040 ------- 2 1.0 7.0 13 43
- 0.87856 5 7 tcp 1040 ------- 2 1.0 7.0 13 43
r 0.8796 1 4 tcp 1040 ------- 2 1.0 7.0 19 63
+ 0.8796 4 5 tcp 1040 ------- 2 1.0 7.0 19 63
r 0.8796 0 4 tcp 1040 ------- 1 0.0 6.0 20 61
+ 0.8796 4 5 tcp 1040 ------- 1 0.0 6.0 20 61
r 0.88024 5 7 tcp 1040 ------- 2 1.0 7.0 12 39
+ 0.88024 7 5 ack 40 ------- 2 7.0 1.0 12 71
- 0.88024 7 5 ack 40 ------- 2 7.0 1.0 12 71
r 0.88224 6 5 ack 40 ------- 1 6.0 0.0 12 68
+ 0.88224 5 4 ack 40 ------- 1 6.0 0.0 12 68
- 0.88224 5 4 ack 40 ------- 1 6.0 0.0 12 68
r 0.88424 5 4 ack 40 ------- 2 7.0 1.0 11 65
+ 0.88424 4 1 ack 40 ------- 2 7.0 1.0 11 65
- 0.88424 4 1 ack 40 ------- 2 7.0 1.0 11 65
- 0.8852 4 5 tcp 1040 ------- 1 0.0 6.0 15 48
r 0.88624 4 0 ack 40 ------- 1 6.0 0.0 11 62
+ 0.88624 0 4 tcp 1040 ------- 1 0.0 6.0 23 72
+ 0.88624 0 4 tcp 1040 ------- 1 0.0 6.0 24 73
- 0.88624 1 4 tcp 1040 ------- 2 1.0 7.0 22 70
- 0.88624 0 4 tcp 1040 ------- 1 0.0 6.0 23 72
r 0.88688 4 5 tcp 1040 ------- 1 0.0 6.0 14 41
+ 0.88688 5 6 tcp 1040 ------- 1 0.0 6.0 14 41
- 0.88688 5 6 tcp 1040 ------- 1 0.0 6.0 14 41
r 0.88792 1 4 tcp 1040 ------- 2 1.0 7.0 20 64
+ 0.88792 4 5 tcp 1040 ------- 2 1.0 7.0 20 64
r 0.88792 0 4 tcp 1040 ------- 1 0.0 6.0 21 66
+ 0.88792 4 5 tcp 1040 ------- 1 0.0 6.0 21 66
r 0.88856 5 6 tcp 1040 ------- 1 0.0 6.0 13 40
+ 0.88856 6 5 ack 40 ------- 1 6.0 0.0 13 74
- 0.88856 6 5 ack 40 ------- 1 6.0 0.0 13 74
r 0.89056 7 5 ack 40 ------- 2 7.0 1.0 12 71
+ 0.89056 5 4 ack 40 ------- 2 7.0 1.0 12 71
- 0.89056 5 4 ack 40 ------- 2 7.0 1.0 12 71
r 0.89256 5 4 ack 40 ------- 1 6.0 0.0 12 68
+ 0.89256 4 0 ack 40 ------- 1 6.0 0.0 12 68
- 0.89256 4 0 ack 40 ------- 1 6.0 0.0 12 68
- 0.89352 4 5 tcp 1040 ------- 2 1.0 7.0 15 51
r 0.89456 4 1 ack 40 ------- 2 7.0 1.0 11 65
+ 0.89456 1 4 tcp 1040 ------- 2 1.0 7.0 23 75
+ 0.89456 1 4 tcp 1040 ------- 2 1.0 7.0 24 76
- 0.89456 1 4 tcp 1040 ------- 2 1.0 7.0 23 75
- 0.89456 0 4 tcp 1040 ------- 1 0.0 6.0 24 73
r 0.8952 4 5 tcp 1040 ------- 2 1.0 7.0 14 44
+ 0.8952 5 7 tcp 1040 ------- 2 1.0 7.0 14 44
- 0.8952 5 7 tcp 1040 ------- 2 1.0 7.0 14 44
r 0.89624 1 4 tcp 1040 ------- 2 1.0 7.0 21 69
+ 0.89624 4 5 tcp 1040 ------- 2 1.0 7.0 21 69
r 0.89624 0 4 tcp 1040 ------- 1 0.0 6.0 22 67
+ 0.89624 4 5 tcp 1040 ------- 1 0.0 6.0 22 67
r 0.89688 5 7 tcp 1040 ------- 2 1.0 7.0 13 43
+ 0.89688 7 5 ack 40 ------- 2 7.0 1.0 13 77
- 0.89688 7 5 ack 40 ------- 2 7.0 1.0 13 77
r 0.89888 6 5 ack 40 ------- 1 6.0 0.0 13 74
+ 0.89888 5 4 ack 40 ------- 1 6.0 0.0 13 74
- 0.89888 5 4 ack 40 ------- 1 6.0 0.0 13 74
r 0.90088 5 4 ack 40 ------- 2 7.0 1.0 12 71
+ 0.90088 4 1 ack 40 ------- 2 7.0 1.0 12 71
- 0.90088 4 1 ack 40 ------- 2 7.0 1.0 12 71
- 0.90184 4 5 tcp 1040 ------- 1 0.0 6.0 16 49
r 0.90288 4 0 ack 40 ------- 1 6.0 0.0 12 68
+ 0.90288 0 4 tcp 1040 ------- 1 0.0 6.0 25 78
+ 0.90288 0 4 tcp 1040 ------- 1 0.0 6.0 26 79
- 0.90288 1 4 tcp 1040 ------- 2 1.0 7.0 24 76
- 0.90288 0 4 tcp 1040 ------- 1 0.0 6.0 25 78
r 0.90352 4 5 tcp 1040 ------- 1 0.0 6.0 15 48
+ 0.90352 5 6 tcp 1040 ------- 1 0.0 6.0 15 48
- 0.90352 5 6 tcp 1040 ------- 1 0.0 6.0 15 48
r 0.90456 1 4 tcp 1040 ------- 2 1.0 7.0 22 70
+ 0.90456 4 5 tcp 1040 ------- 2 1.0 7.0 22 70
r 0.90456 0 4 tcp 1040 ------- 1 0.0 6.0 23 72
+ 0.90456 4 5 tcp 1040 ------- 1 0.0 6.0 23 72
r 0.9052 5 6 tcp 1040 ------- 1 0.0 6.0 14 41
+ 0.9052 6 5 ack 40 ------- 1 6.0 0.0 14 80
- 0.9052 6 5 ack 40 ------- 1 6.0 0.0 14 80
r 0.9072 7 5 ack 40 ------- 2 7.0 1.0 13 77
+ 0.9072 5 4 ack 40 ------- 2 7.0 1.0 13 77
- 0.9072 5 4 ack 40 ------- 2 7.0 1.0 13 77
r 0.9092 5 4 ack 40 ------- 1 6.0 0.0 13 74
+ 0.9092 4 0 ack 40 ------- 1 6.0 0.0 13 74
- 0.9092 4 0 ack 40 ------- 1 6.0 0.0 13 74
- 0.91016 4 5 tcp 1040 ------- 2 1.0 7.0 16 52
r 0.9112 4 1 ack 40 ------- 2 7.0 1.0 12 71
+ 0.9112 1 4 tcp 1040 ------- 2 1.0 7.0 25 81
+ 0.9112 1 4 tcp 1040 ------- 2 1.0 7.0 26 82
- 0.9112 1 4 tcp 1040 ------- 2 1.0 7.0 25 81
- 0.9112 0 4 tcp 1040 ------- 1 0.0 6.0 26 79
r 0.91184 4 5 tcp 1040 ------- 2 1.0 7.0 15 51
+ 0.91184 5 7 tcp 1040 ------- 2 1.0 7.0 15 51
- 0.91184 5 7 tcp 1040 ------- 2 1.0 7.0 15 51
r 0.91288 1 4 tcp 1040 ------- 2 1.0 7.0 23 75
+ 0.91288 4 5 tcp 1040 ------- 2 1.0 7.0 23 75
r 0.91288 0 4 tcp 1040 ------- 1 0.0 6.0 24 73
+ 0.91288 4 5 tcp 1040 ------- 1 0.0 6.0 24 73
r 0.91352 5 7 tcp 1040 ------- 2 1.0 7.0 14 44
+ 0.91352 7 5 ack 40 ------- 2 7.0 1.0 14 83
- 0.91352 7 5 ack 40 ------- 2 7.0 1.0 14 83
r 0.91552 6 5 ack 40 ------- 1 6.0 0.0 14 80
+ 0.91552 5 4 ack 40 ------- 1 6.0 0.0 14 80
- 0.91552 5 4 ack 40 ------- 1 6.0 0.0 14 80
r 0.91752 5 4 ack 40 ------- 2 7.0 1.0 13 77
+ 0.91752 4 1 ack 40 ------- 2 7.0 1.0 13 77
- 0.91752 4 1 ack 40 ------- 2 7.0 1.0 13 77
- 0.91848 4 5 tcp 1040 ------- 1 0.0 6.0 17 54
r 0.91952 4 0 ack 40 ------- 1 6.0 0.0 13 74
+ 0.91952 0 4 tcp 1040 ------- 1 0.0 6.0 27 84
+ 0.91952 0 4 tcp 1040 ------- 1 0.0 6.0 28 85
- 0.91952 1 4 tcp 1040 ------- 2 1.0 7.0 26 82
- 0.91952 0 4 tcp 1040 ------- 1 0.0 6.0 27 84
r 0.92016 4 5 tcp 1040 ------- 1 0.0 6.0 16 49
+ 0.92016 5 6 tcp 1040 ------- 1 0.0 6.0 16 49
- 0.92016 5 6 tcp 1040 ------- 1 0.0 6.0 16 49
r 0.9212 1 4 tcp 1040 ------- 2 1.0 7.0 24 76
+ 0.9212 4 5 tcp 1040 ------- 2 1.0 7.0 24 76
r 0.9212 0 4 tcp 1040 ------- 1 0.0 6.0 25 78
+ 0.9212 4 5 tcp 1040 ------- 1 0.0 6.0 25 78
r 0.92184 5 6 tcp 1040 ------- 1 0.0 6.0 15 48
+ 0.92184 6 5 ack 40 ------- 1 6.0 0.0 15 86
- 0.92184 6 5 ack 40 ------- 1 6.0 0.0 15 86
r 0.92384 7 5 ack 40 ------- 2 7.0 1.0 14 83
+ 0.92384 5 4 ack 40 ------- 2 7.0 1.0 14 83
- 0.92384 5 4 ack 40 ------- 2 7.0 1.0 14 83
r 0.92584 5 4 ack 40 ------- 1 6.0 0.0 14 80
+ 0.92584 4 0 ack 40 ------- 1 6.0 0.0 14 80
- 0.92584 4 0 ack 40 ------- 1 6.0 0.0 14 80
- 0.9268 4 5 tcp 1040 ------- 2 1.0 7.0 17 57
r 0.92784 4 1 ack 40 ------- 2 7.0 1.0 13 77
+ 0.92784 1 4 tcp 1040 ------- 2 1.0 7.0 27 87
+ 0.92784 1 4 tcp 1040 ------- 2 1.0 7.0 28 88
- 0.92784 1 4 tcp 1040 ------- 2 1.0 7.0 27 87
- 0.92784 0 4 tcp 1040 ------- 1 0.0 6.0 28 85
r 0.92848 4 5 tcp 1040 ------- 2 1.0 7.0 16 52
+ 0.92848 5 7 tcp 1040 ------- 2 1.0 7.0 16 52
- 0.92848 5 7 tcp 1040 ------- 2 1.0 7.0 16 52
r 0.92952 1 4 tcp 1040 ------- 2 1.0 7.0 25 81
+ 0.92952 4 5 tcp 1040 ------- 2 1.0 7.0 25 81
r 0.92952 0 4 tcp 1040 ------- 1 0.0 6.0 26 79
+ 0.92952 4 5 tcp 1040 ------- 1 0.0 6.0 26 79
r 0.93016 5 7 tcp 1040 ------- 2 1.0 7.0 15 51
+ 0.93016 7 5 ack 40 ------- 2 7.0 1.0 15 89
- 0.93016 7 5 ack 40 ------- 2 7.0 1.0 15 89
r 0.93216 6 5 ack 40 ------- 1 6.0 0.0 15 86
+ 0.93216 5 4 ack 40 ------- 1 6.0 0.0 15 86
- 0.93216 5 4 ack 40 ------- 1 6.0 0.0 15 86
r 0.93416 5 4 ack 40 ------- 2 7.0 1.0 14 83